input file for LAMMPS

993  atoms
96  bonds
192  angles

10 atom types
1 bond types

4 angle types


 0.000000000 15.678000000  xlo xhi
 0.000000000 18.036600000  ylo yhi
 0.000000000 40.089245403  zlo zhi

 0.000000000 -3.976707055  0.000000000  xy xz yz

Masses

1 28.085500
2 28.085500
3 26.981500
4 26.981500
5 15.999400
6 15.999400
7 39.098300
8 1.007000
9 15.999400
10 28.085500
Atoms

1 1 1 2.100000  1.752053000  8.384314000  7.757269000
2 1 1 2.100000 12.931770000  9.652287000  2.265043000
3 1 1 2.100000 11.937594000  8.384314000 12.287354000
4 1 1 2.100000  0.757877000  9.652287000 17.779579000
5 1 1 2.100000  4.365053000 12.893464000  7.757269000
6 1 1 2.100000 -0.133229000 14.161436000  2.265043000
7 1 1 2.100000 -1.127404000 12.893464000 12.287354000
8 1 1 2.100000  3.370877000 14.161436000 17.779579000
9 1 1 2.100000 -0.236298000  8.384314000 27.801891000
10 1 1 2.100000 10.943419000  9.652287000 22.309666000
11 1 1 2.100000  9.949244000  8.384314000 32.331978000
12 1 1 2.100000 -1.230474000  9.652287000 37.824203000
13 1 1 2.100000  2.376702000 12.893464000 27.801891000
14 1 1 2.100000 -2.121580000 14.161436000 22.309666000
15 1 1 2.100000 -3.115755000 12.893464000 32.331978000
16 1 1 2.100000  1.382526000 14.161436000 37.824203000
17 1 1 2.100000  1.752053000 17.402615000  7.757269000
18 1 1 2.100000 12.931770000  0.633986000  2.265043000
19 1 1 2.100000 11.937594000 17.402615000 12.287354000
20 1 1 2.100000  0.757877000  0.633986000 17.779579000
21 1 1 2.100000  4.365053000  3.875163000  7.757269000
22 1 1 2.100000 -0.133229000  5.143137000  2.265043000
23 1 1 2.100000 -1.127404000  3.875163000 12.287354000
24 1 1 2.100000  3.370877000  5.143137000 17.779579000
25 1 1 2.100000 -0.236298000 17.402615000 27.801891000
26 1 1 2.100000 10.943419000  0.633986000 22.309666000
27 1 1 2.100000  9.949244000 17.402615000 32.331978000
28 1 1 2.100000 -1.230474000  0.633986000 37.824203000
29 1 1 2.100000  2.376702000  3.875163000 27.801891000
30 1 1 2.100000 -2.121580000  5.143137000 22.309666000
31 1 1 2.100000 -3.115755000  3.875163000 32.331978000
32 1 1 2.100000  1.382526000  5.143137000 37.824203000
33 1 1 2.100000 12.204053000  8.384314000  7.757269000
34 1 1 2.100000  2.479771000  9.652287000  2.265043000
35 1 1 2.100000  1.485596000  8.384314000 12.287354000
36 1 1 2.100000 11.209877000  9.652287000 17.779579000
37 1 1 2.100000 14.817053000 12.893464000  7.757269000
38 1 1 2.100000  5.092772000 14.161436000  2.265043000
39 1 1 2.100000  4.098596000 12.893464000 12.287354000
40 1 1 2.100000 13.822877000 14.161436000 17.779579000
41 1 1 2.100000 10.215701000  8.384314000 27.801891000
42 1 1 2.100000  0.491420000  9.652287000 22.309666000
43 1 1 2.100000 -0.502755000  8.384314000 32.331978000
44 1 1 2.100000  9.221526000  9.652287000 37.824203000
45 1 1 2.100000 12.828702000 12.893464000 27.801891000
46 1 1 2.100000  3.104420000 14.161436000 22.309666000
47 1 1 2.100000  2.110245000 12.893464000 32.331978000
48 1 1 2.100000 11.834526000 14.161436000 37.824203000
49 1 1 2.100000 12.204053000 17.402615000  7.757269000
50 1 1 2.100000  2.479771000  0.633986000  2.265043000
51 1 1 2.100000  1.485596000 17.402615000 12.287354000
52 1 1 2.100000 11.209877000  0.633986000 17.779579000
53 1 1 2.100000 14.817053000  3.875163000  7.757269000
54 1 1 2.100000  5.092772000  5.143137000  2.265043000
55 1 1 2.100000  4.098596000  3.875163000 12.287354000
56 1 1 2.100000 13.822877000  5.143137000 17.779579000
57 1 1 2.100000 10.215701000 17.402615000 27.801891000
58 1 1 2.100000  0.491420000  0.633986000 22.309666000
59 1 1 2.100000 -0.502755000 17.402615000 32.331978000
60 1 1 2.100000  9.221526000  0.633986000 37.824203000
61 1 1 2.100000 12.828702000  3.875163000 27.801891000
62 1 1 2.100000  3.104420000  5.143137000 22.309666000
63 1 1 2.100000  2.110245000  3.875163000 32.331978000
64 1 1 2.100000 11.834526000  5.143137000 37.824203000
65 1 1 2.100000  6.978053000  8.384314000  7.757269000
66 1 1 2.100000  7.705772000  9.652287000  2.265043000
67 1 1 2.100000  6.711596000  8.384314000 12.287354000
68 1 1 2.100000  5.983877000  9.652287000 17.779579000
69 1 1 2.100000  9.591052000 12.893464000  7.757269000
70 1 1 2.100000 10.318771000 14.161436000  2.265043000
71 1 1 2.100000  9.324595000 12.893464000 12.287354000
72 1 1 2.100000  8.596877000 14.161436000 17.779579000
73 1 1 2.100000  4.989701000  8.384314000 27.801891000
74 1 1 2.100000  5.717421000  9.652287000 22.309666000
75 1 1 2.100000  4.723245000  8.384314000 32.331978000
76 1 1 2.100000  3.995526000  9.652287000 37.824203000
77 1 1 2.100000  7.602701000 12.893464000 27.801891000
78 1 1 2.100000  8.330420000 14.161436000 22.309666000
79 1 1 2.100000  7.336245000 12.893464000 32.331978000
80 1 1 2.100000  6.608526000 14.161436000 37.824203000
81 1 1 2.100000  6.978053000 17.402615000  7.757269000
82 1 1 2.100000  7.705772000  0.633986000  2.265043000
83 1 1 2.100000  6.711596000 17.402615000 12.287354000
84 1 1 2.100000  5.983877000  0.633986000 17.779579000
85 1 1 2.100000  9.591052000  3.875163000  7.757269000
86 1 1 2.100000 10.318771000  5.143137000  2.265043000
87 1 1 2.100000  9.324595000  3.875163000 12.287354000
88 1 1 2.100000  8.596877000  5.143137000 17.779579000
89 1 1 2.100000  4.989701000 17.402615000 27.801891000
90 1 1 2.100000  5.717421000  0.633986000 22.309666000
91 1 1 2.100000  4.723245000 17.402615000 32.331978000
92 1 1 2.100000  3.995526000  0.633986000 37.824203000
93 1 1 2.100000  7.602701000  3.875163000 27.801891000
94 1 1 2.100000  8.330420000  5.143137000 22.309666000
95 1 1 2.100000  7.336245000  3.875163000 32.331978000
96 1 1 2.100000  6.608526000  5.143137000 37.824203000
97 1 2 2.100000  1.547665000  2.376322000  7.747247000
98 1 2 2.100000 13.136159000 15.660278000  2.275065000
99 1 4 1.575000 12.141983000  2.376322000 12.297376000
100 1 4 1.575000  0.553490000 15.660278000 17.769558000
101 1 4 1.575000  4.160665000  6.885472000  7.747247000
102 1 2 2.100000  0.071159000  2.132828000  2.275065000
103 1 2 2.100000 -0.923017000  6.885472000 12.297376000
104 1 2 2.100000  3.166490000  2.132828000 17.769558000
105 1 2 2.100000 -0.440686000  2.376322000 27.791870000
106 1 2 2.100000 11.147807000 15.660278000 22.319687000
107 1 2 2.100000 10.153632000  2.376322000 32.341999000
108 1 2 2.100000 -1.434861000 15.660278000 37.814182000
109 1 2 2.100000  2.172314000  6.885472000 27.791870000
110 1 4 1.575000 -1.917192000  2.132828000 22.319687000
111 1 4 1.575000 -2.911368000  6.885472000 32.341999000
112 1 2 2.100000  1.178138000  2.132828000 37.814182000
113 1 4 1.575000  1.547665000 11.394622000  7.747247000
114 1 2 2.100000 13.136159000  6.641978000  2.275065000
115 1 2 2.100000 12.141983000 11.394622000 12.297376000
116 1 2 2.100000  0.553490000  6.641978000 17.769558000
117 1 2 2.100000  4.160665000 15.903772000  7.747247000
118 1 2 2.100000  0.071159000 11.151128000  2.275065000
119 1 4 1.575000 -0.923017000 15.903772000 12.297376000
120 1 4 1.575000  3.166490000 11.151128000 17.769558000
121 1 4 1.575000 -0.440686000 11.394622000 27.791870000
122 1 2 2.100000 11.147807000  6.641978000 22.319687000
123 1 4 1.575000 10.153632000 11.394622000 32.341999000
124 1 4 1.575000 -1.434861000  6.641978000 37.814182000
125 1 4 1.575000  2.172314000 15.903772000 27.791870000
126 1 4 1.575000 -1.917192000 11.151128000 22.319687000
127 1 2 2.100000 -2.911368000 15.903772000 32.341999000
128 1 4 1.575000  1.178138000 11.151128000 37.814182000
129 1 2 2.100000 11.999665000  2.376322000  7.747247000
130 1 2 2.100000  2.684159000 15.660278000  2.275065000
131 1 2 2.100000  1.689983000  2.376322000 12.297376000
132 1 2 2.100000 11.005489000 15.660278000 17.769558000
133 1 2 2.100000 14.612665000  6.885472000  7.747247000
134 1 4 1.575000  5.297159000  2.132828000  2.275065000
135 1 2 2.100000  4.302983000  6.885472000 12.297376000
136 1 2 2.100000 13.618490000  2.132828000 17.769558000
137 1 2 2.100000 10.011314000  2.376322000 27.791870000
138 1 2 2.100000  0.695807000 15.660278000 22.319687000
139 1 2 2.100000 -0.298368000  2.376322000 32.341999000
140 1 4 1.575000  9.017138000 15.660278000 37.814182000
141 1 2 2.100000 12.624314000  6.885472000 27.791870000
142 1 2 2.100000  3.308808000  2.132828000 22.319687000
143 1 4 1.575000  2.314632000  6.885472000 32.341999000
144 1 2 2.100000 11.630138000  2.132828000 37.814182000
145 1 4 1.575000 11.999665000 11.394622000  7.747247000
146 1 2 2.100000  2.684159000  6.641978000  2.275065000
147 1 4 1.575000  1.689983000 11.394622000 12.297376000
148 1 4 1.575000 11.005489000  6.641978000 17.769558000
149 1 4 1.575000 14.612665000 15.903772000  7.747247000
150 1 2 2.100000  5.297159000 11.151128000  2.275065000
151 1 4 1.575000  4.302983000 15.903772000 12.297376000
152 1 2 2.100000 13.618490000 11.151128000 17.769558000
153 1 2 2.100000 10.011314000 11.394622000 27.791870000
154 1 2 2.100000  0.695807000  6.641978000 22.319687000
155 1 2 2.100000 -0.298368000 11.394622000 32.341999000
156 1 2 2.100000  9.017138000  6.641978000 37.814182000
157 1 2 2.100000 12.624314000 15.903772000 27.791870000
158 1 2 2.100000  3.308808000 11.151128000 22.319687000
159 1 2 2.100000  2.314632000 15.903772000 32.341999000
160 1 4 1.575000 11.630138000 11.151128000 37.814182000
161 1 4 1.575000  6.773665000  2.376322000  7.747247000
162 1 4 1.575000  7.910158000 15.660278000  2.275065000
163 1 4 1.575000  6.915983000  2.376322000 12.297376000
164 1 2 2.100000  5.779490000 15.660278000 17.769558000
165 1 2 2.100000  9.386665000  6.885472000  7.747247000
166 1 2 2.100000 10.523158000  2.132828000  2.275065000
167 1 2 2.100000  9.528983000  6.885472000 12.297376000
168 1 2 2.100000  8.392489000  2.132828000 17.769558000
169 1 4 1.575000  4.785314000  2.376322000 27.791870000
170 1 4 1.575000  5.921807000 15.660278000 22.319687000
171 1 4 1.575000  4.927631000  2.376322000 32.341999000
172 1 4 1.575000  3.791139000 15.660278000 37.814182000
173 1 2 2.100000  7.398314000  6.885472000 27.791870000
174 1 2 2.100000  8.534807000  2.132828000 22.319687000
175 1 2 2.100000  7.540632000  6.885472000 32.341999000
176 1 2 2.100000  6.404139000  2.132828000 37.814182000
177 1 2 2.100000  6.773665000 11.394622000  7.747247000
178 1 2 2.100000  7.910158000  6.641978000  2.275065000
179 1 4 1.575000  6.915983000 11.394622000 12.297376000
180 1 2 2.100000  5.779490000  6.641978000 17.769558000
181 1 2 2.100000  9.386665000 15.903772000  7.747247000
182 1 2 2.100000 10.523158000 11.151128000  2.275065000
183 1 2 2.100000  9.528983000 15.903772000 12.297376000
184 1 2 2.100000  8.392489000 11.151128000 17.769558000
185 1 4 1.575000  4.785314000 11.394622000 27.791870000
186 1 2 2.100000  5.921807000  6.641978000 22.319687000
187 1 4 1.575000  4.927631000 11.394622000 32.341999000
188 1 2 2.100000  3.791139000  6.641978000 37.814182000
189 1 2 2.100000  7.398314000 15.903772000 27.791870000
190 1 2 2.100000  8.534807000 11.151128000 22.319687000
191 1 2 2.100000  7.540632000 15.903772000 32.341999000
192 1 2 2.100000  6.404139000 11.151128000 37.814182000
193 1 3 1.575000  0.840835000  0.746715000  5.147459000
194 1 3 1.575000 13.842989000 17.289885000  4.874852000
195 1 3 1.575000 12.848813000  0.746715000 14.897163000
196 1 3 1.575000 -0.153341000 17.289885000 15.169770000
197 1 3 1.575000  3.453835000  5.255866000  5.147459000
198 1 3 1.575000  0.777989000  3.762435000  4.874852000
199 1 3 1.575000 -0.216186000  5.255866000 14.897163000
200 1 3 1.575000  2.459659000  3.762435000 15.169770000
201 1 3 1.575000 -1.147516000  0.746715000 25.192080000
202 1 3 1.575000 11.854638000 17.289885000 24.919476000
203 1 3 1.575000 10.860462000  0.746715000 34.941788000
204 1 3 1.575000 -2.141692000 17.289885000 35.214390000
205 1 3 1.575000  1.465484000  5.255866000 25.192080000
206 1 3 1.575000 -1.210362000  3.762435000 24.919476000
207 1 3 1.575000 -2.204537000  5.255866000 34.941788000
208 1 3 1.575000  0.471308000  3.762435000 35.214390000
209 1 3 1.575000  0.840835000  9.765016000  5.147459000
210 1 3 1.575000 13.842989000  8.271585000  4.874852000
211 1 3 1.575000 12.848813000  9.765016000 14.897163000
212 1 3 1.575000 -0.153341000  8.271585000 15.169770000
213 1 3 1.575000  3.453835000 14.274165000  5.147459000
214 1 3 1.575000  0.777989000 12.780735000  4.874852000
215 1 3 1.575000 -0.216186000 14.274165000 14.897163000
216 1 3 1.575000  2.459659000 12.780735000 15.169770000
217 1 3 1.575000 -1.147516000  9.765016000 25.192080000
218 1 3 1.575000 11.854638000  8.271585000 24.919476000
219 1 3 1.575000 10.860462000  9.765016000 34.941788000
220 1 3 1.575000 -2.141692000  8.271585000 35.214390000
221 1 3 1.575000  1.465484000 14.274165000 25.192080000
222 1 3 1.575000 -1.210362000 12.780735000 24.919476000
223 1 3 1.575000 -2.204537000 14.274165000 34.941788000
224 1 3 1.575000  0.471308000 12.780735000 35.214390000
225 1 3 1.575000 11.292835000  0.746715000  5.147459000
226 1 3 1.575000  3.390989000 17.289885000  4.874852000
227 1 3 1.575000  2.396813000  0.746715000 14.897163000
228 1 3 1.575000 10.298659000 17.289885000 15.169770000
229 1 3 1.575000 13.905835000  5.255866000  5.147459000
230 1 3 1.575000  6.003989000  3.762435000  4.874852000
231 1 3 1.575000  5.009814000  5.255866000 14.897163000
232 1 3 1.575000 12.911659000  3.762435000 15.169770000
233 1 3 1.575000  9.304484000  0.746715000 25.192080000
234 1 3 1.575000  1.402638000 17.289885000 24.919476000
235 1 3 1.575000  0.408462000  0.746715000 34.941788000
236 1 3 1.575000  8.310308000 17.289885000 35.214390000
237 1 3 1.575000 11.917484000  5.255866000 25.192080000
238 1 3 1.575000  4.015638000  3.762435000 24.919476000
239 1 3 1.575000  3.021462000  5.255866000 34.941788000
240 1 3 1.575000 10.923308000  3.762435000 35.214390000
241 1 3 1.575000 11.292835000  9.765016000  5.147459000
242 1 3 1.575000  3.390989000  8.271585000  4.874852000
243 1 3 1.575000  2.396813000  9.765016000 14.897163000
244 1 3 1.575000 10.298659000  8.271585000 15.169770000
245 1 3 1.575000 13.905835000 14.274165000  5.147459000
246 1 3 1.575000  6.003989000 12.780735000  4.874852000
247 1 3 1.575000  5.009814000 14.274165000 14.897163000
248 1 3 1.575000 12.911659000 12.780735000 15.169770000
249 1 3 1.575000  9.304484000  9.765016000 25.192080000
250 1 3 1.575000  1.402638000  8.271585000 24.919476000
251 1 3 1.575000  0.408462000  9.765016000 34.941788000
252 1 3 1.575000  8.310308000  8.271585000 35.214390000
253 1 3 1.575000 11.917484000 14.274165000 25.192080000
254 1 3 1.575000  4.015638000 12.780735000 24.919476000
255 1 3 1.575000  3.021462000 14.274165000 34.941788000
256 1 3 1.575000 10.923308000 12.780735000 35.214390000
257 1 3 1.575000  6.066835000  0.746715000  5.147459000
258 1 3 1.575000  8.616988000 17.289885000  4.874852000
259 1 3 1.575000  7.622813000  0.746715000 14.897163000
260 1 3 1.575000  5.072659000 17.289885000 15.169770000
261 1 3 1.575000  8.679834000  5.255866000  5.147459000
262 1 3 1.575000 11.229989000  3.762435000  4.874852000
263 1 3 1.575000 10.235813000  5.255866000 14.897163000
264 1 3 1.575000  7.685659000  3.762435000 15.169770000
265 1 3 1.575000  4.078484000  0.746715000 25.192080000
266 1 3 1.575000  6.628637000 17.289885000 24.919476000
267 1 3 1.575000  5.634462000  0.746715000 34.941788000
268 1 3 1.575000  3.084308000 17.289885000 35.214390000
269 1 3 1.575000  6.691483000  5.255866000 25.192080000
270 1 3 1.575000  9.241637000  3.762435000 24.919476000
271 1 3 1.575000  8.247462000  5.255866000 34.941788000
272 1 3 1.575000  5.697308000  3.762435000 35.214390000
273 1 3 1.575000  6.066835000  9.765016000  5.147459000
274 1 3 1.575000  8.616988000  8.271585000  4.874852000
275 1 3 1.575000  7.622813000  9.765016000 14.897163000
276 1 3 1.575000  5.072659000  8.271585000 15.169770000
277 1 3 1.575000  8.679834000 14.274165000  5.147459000
278 1 3 1.575000 11.229989000 12.780735000  4.874852000
279 1 3 1.575000 10.235813000 14.274165000 14.897163000
280 1 3 1.575000  7.685659000 12.780735000 15.169770000
281 1 3 1.575000  4.078484000  9.765016000 25.192080000
282 1 3 1.575000  6.628637000  8.271585000 24.919476000
283 1 3 1.575000  5.634462000  9.765016000 34.941788000
284 1 3 1.575000  3.084308000  8.271585000 35.214390000
285 1 3 1.575000  6.691483000 14.274165000 25.192080000
286 1 3 1.575000  9.241637000 12.780735000 24.919476000
287 1 3 1.575000  8.247462000 14.274165000 34.941788000
288 1 3 1.575000  5.697308000 12.780735000 35.214390000
289 1 7 1.000000 15.678000000 17.224051000  0.000000000
290 1 7 1.000000 -1.988351000 17.224051000 20.044622000
291 1 7 1.000000  1.618824000  5.321699000 10.022311000
292 1 7 1.000000 -1.363702000  3.696601000 40.089245000
293 1 7 1.000000 -2.982527000  0.812549000 30.066935000
294 1 7 1.000000 -0.369527000  5.321699000 30.066935000
295 1 7 1.000000 -0.994176000  9.830850000 10.022311000
296 1 7 1.000000 -1.363702000 12.714901000 40.089245000
297 1 7 1.000000  3.862298000  3.696601000 40.089245000
298 1 7 1.000000 10.452000000 17.224051000  0.000000000
299 1 7 1.000000  5.225999000  8.205750000  0.000000000
300 1 7 1.000000  3.862298000 12.714901000 40.089245000
301 1 7 1.000000  9.088298000 12.714901000 40.089245000
302 1 7 1.000000  4.231824000  0.812549000 10.022311000
303 1 7 1.000000  9.457824000  0.812549000 10.022311000
304 1 7 1.000000  3.237649000 17.224051000 20.044622000
305 1 7 1.000000  6.844824000  5.321699000 10.022311000
306 1 7 1.000000  5.850648000  3.696601000 20.044622000
307 1 7 1.000000  2.243473000  0.812549000 30.066935000
308 1 7 1.000000  7.469472000  0.812549000 30.066935000
309 1 7 1.000000 11.076648000  3.696601000 20.044622000
310 1 7 1.000000 10.082473000  5.321699000 30.066935000
311 1 7 1.000000  4.231824000  9.830850000 10.022311000
312 1 7 1.000000 10.451999000  8.205750000  0.000000000
313 1 7 1.000000  9.457824000  9.830850000 10.022311000
314 1 7 1.000000  3.237649000  8.205750000 20.044622000
315 1 7 1.000000  6.844824000 14.339999000 10.022311000
316 1 7 1.000000 12.070824000 14.339999000 10.022311000
317 1 7 1.000000  5.850648000 12.714901000 20.044622000
318 1 7 1.000000  8.463648000  8.205750000 20.044622000
319 1 7 1.000000  7.469472000  9.830850000 30.066935000
320 1 7 1.000000  4.856473000 14.339999000 30.066935000
321 1 7 1.000000 11.076648000 12.714901000 20.044622000
322 1 5 -1.050000  1.818480000  8.291425000  6.023409000
323 1 5 -1.050000 12.865344000  9.745175000  3.998902000
324 1 5 -1.050000 11.871168000  8.291425000 14.021213000
325 1 5 -1.050000  0.824305000  9.745175000 16.045721000
326 1 5 -1.050000  4.431480000 12.800575000  6.023409000
327 1 5 -1.050000  3.437304000 14.254325000 16.045721000
328 1 5 -1.050000 -0.169871000  8.291425000 26.068033000
329 1 5 -1.050000 10.876992000  9.745175000 24.043524000
330 1 5 -1.050000  9.882817000  8.291425000 34.065834000
331 1 5 -1.050000 -1.164047000  9.745175000 36.090343000
332 1 5 -1.050000  2.443129000 12.800575000 26.068033000
333 1 5 -1.050000  1.448953000 14.254325000 36.090343000
334 1 5 -1.050000  4.431480000  3.782275000  6.023409000
335 1 5 -1.050000  3.437304000  5.236025000 16.045721000
336 1 5 -1.050000  2.443129000  3.782275000 26.068033000
337 1 5 -1.050000  1.448953000  5.236025000 36.090343000
338 1 5 -1.050000 12.270480000  8.291425000  6.023409000
339 1 5 -1.050000  2.413344000  9.745175000  3.998902000
340 1 5 -1.050000  1.419168000  8.291425000 14.021213000
341 1 5 -1.050000 11.276304000  9.745175000 16.045721000
342 1 5 -1.050000  5.026344000 14.254325000  3.998902000
343 1 5 -1.050000  4.032168000 12.800575000 14.021213000
344 1 5 -1.050000 10.282129000  8.291425000 26.068033000
345 1 5 -1.050000  0.424993000  9.745175000 24.043524000
346 1 5 -1.050000 -0.569183000  8.291425000 34.065834000
347 1 5 -1.050000  9.287953000  9.745175000 36.090343000
348 1 5 -1.050000  3.037993000 14.254325000 24.043524000
349 1 5 -1.050000  2.043817000 12.800575000 34.065834000
350 1 5 -1.050000  5.026344000  5.236025000  3.998902000
351 1 5 -1.050000  4.032168000  3.782275000 14.021213000
352 1 5 -1.050000  3.037993000  5.236025000 24.043524000
353 1 5 -1.050000  2.043817000  3.782275000 34.065834000
354 1 5 -1.050000  7.044480000  8.291425000  6.023409000
355 1 5 -1.050000  7.639344000  9.745175000  3.998902000
356 1 5 -1.050000  6.645169000  8.291425000 14.021213000
357 1 5 -1.050000  6.050304000  9.745175000 16.045721000
358 1 5 -1.050000  9.657480000 12.800575000  6.023409000
359 1 5 -1.050000 10.252343000 14.254325000  3.998902000
360 1 5 -1.050000  9.258168000 12.800575000 14.021213000
361 1 5 -1.050000  8.663304000 14.254325000 16.045721000
362 1 5 -1.050000  5.056129000  8.291425000 26.068033000
363 1 5 -1.050000  5.650993000  9.745175000 24.043524000
364 1 5 -1.050000  4.656817000  8.291425000 34.065834000
365 1 5 -1.050000  4.061954000  9.745175000 36.090343000
366 1 5 -1.050000  7.669129000 12.800575000 26.068033000
367 1 5 -1.050000  8.263992000 14.254325000 24.043524000
368 1 5 -1.050000  7.269817000 12.800575000 34.065834000
369 1 5 -1.050000  6.674953000 14.254325000 36.090343000
370 1 5 -1.050000  9.657480000  3.782275000  6.023409000
371 1 5 -1.050000 10.252343000  5.236025000  3.998902000
372 1 5 -1.050000  9.258168000  3.782275000 14.021213000
373 1 5 -1.050000  8.663304000  5.236025000 16.045721000
374 1 5 -1.050000  7.669129000  3.782275000 26.068033000
375 1 5 -1.050000  8.263992000  5.236025000 24.043524000
376 1 5 -1.050000  7.269817000  3.782275000 34.065834000
377 1 5 -1.050000  6.674953000  5.236025000 36.090343000
378 1 5 -1.050000  1.375255000  2.403377000  6.340114000
379 1 5 -1.050000 13.308568000 15.633224000  3.682197000
380 1 9 -1.168800 12.314392000  2.403377000 13.704508000
381 1 9 -1.168800  0.381080000 15.633224000 16.362427000
382 1 9 -1.168800  3.988255000  6.912527000  6.340114000
383 1 5 -1.050000  0.243569000  2.105773000  3.682197000
384 1 5 -1.050000 -0.750607000  6.912527000 13.704508000
385 1 5 -1.050000  2.994080000  2.105773000 16.362427000
386 1 5 -1.050000 -0.613096000  2.403377000 26.384737000
387 1 5 -1.050000 11.320217000 15.633224000 23.726820000
388 1 5 -1.050000 10.326041000  2.403377000 33.749130000
389 1 5 -1.050000 -1.607271000 15.633224000 36.407047000
390 1 5 -1.050000  1.999904000  6.912527000 26.384737000
391 1 9 -1.168800 -1.744782000  2.105773000 23.726820000
392 1 9 -1.168800 -2.738958000  6.912527000 33.749130000
393 1 5 -1.050000  1.005728000  2.105773000 36.407047000
394 1 9 -1.168800  1.375255000 11.421677000  6.340114000
395 1 5 -1.050000 13.308568000  6.614923000  3.682197000
396 1 5 -1.050000 12.314392000 11.421677000 13.704508000
397 1 5 -1.050000  0.381080000  6.614923000 16.362427000
398 1 5 -1.050000  3.988255000 15.930827000  6.340114000
399 1 5 -1.050000  0.243569000 11.124073000  3.682197000
400 1 9 -1.168800 -0.750607000 15.930827000 13.704508000
401 1 9 -1.168800  2.994080000 11.124073000 16.362427000
402 1 9 -1.168800 -0.613096000 11.421677000 26.384737000
403 1 5 -1.050000 11.320217000  6.614923000 23.726820000
404 1 9 -1.168800 10.326041000 11.421677000 33.749130000
405 1 9 -1.168800 -1.607271000  6.614923000 36.407047000
406 1 9 -1.168800  1.999904000 15.930827000 26.384737000
407 1 9 -1.168800 -1.744782000 11.124073000 23.726820000
408 1 5 -1.050000 -2.738958000 15.930827000 33.749130000
409 1 9 -1.168800  1.005728000 11.124073000 36.407047000
410 1 5 -1.050000 11.827255000  2.403377000  6.340114000
411 1 5 -1.050000  2.856569000 15.633224000  3.682197000
412 1 5 -1.050000  1.862393000  2.403377000 13.704508000
413 1 5 -1.050000 10.833079000 15.633224000 16.362427000
414 1 5 -1.050000 14.440255000  6.912527000  6.340114000
415 1 9 -1.168800  5.469569000  2.105773000  3.682197000
416 1 5 -1.050000  4.475394000  6.912527000 13.704508000
417 1 5 -1.050000 13.446079000  2.105773000 16.362427000
418 1 5 -1.050000  9.838903000  2.403377000 26.384737000
419 1 5 -1.050000  0.868218000 15.633224000 23.726820000
420 1 5 -1.050000 -0.125958000  2.403377000 33.749130000
421 1 9 -1.168800  8.844728000 15.633224000 36.407047000
422 1 5 -1.050000 12.451904000  6.912527000 26.384737000
423 1 5 -1.050000  3.481218000  2.105773000 23.726820000
424 1 9 -1.168800  2.487042000  6.912527000 33.749130000
425 1 5 -1.050000 11.457728000  2.105773000 36.407047000
426 1 9 -1.168800 11.827255000 11.421677000  6.340114000
427 1 5 -1.050000  2.856569000  6.614923000  3.682197000
428 1 9 -1.168800  1.862393000 11.421677000 13.704508000
429 1 9 -1.168800 10.833079000  6.614923000 16.362427000
430 1 9 -1.168800 14.440255000 15.930827000  6.340114000
431 1 5 -1.050000  5.469569000 11.124073000  3.682197000
432 1 9 -1.168800  4.475394000 15.930827000 13.704508000
433 1 5 -1.050000 13.446079000 11.124073000 16.362427000
434 1 5 -1.050000  9.838903000 11.421677000 26.384737000
435 1 5 -1.050000  0.868218000  6.614923000 23.726820000
436 1 5 -1.050000 -0.125958000 11.421677000 33.749130000
437 1 5 -1.050000  8.844728000  6.614923000 36.407047000
438 1 5 -1.050000 12.451904000 15.930827000 26.384737000
439 1 5 -1.050000  3.481218000 11.124073000 23.726820000
440 1 5 -1.050000  2.487042000 15.930827000 33.749130000
441 1 9 -1.168800 11.457728000 11.124073000 36.407047000
442 1 9 -1.168800  6.601255000  2.403377000  6.340114000
443 1 9 -1.168800  8.082569000 15.633224000  3.682197000
444 1 9 -1.168800  7.088394000  2.403377000 13.704508000
445 1 5 -1.050000  5.607080000 15.633224000 16.362427000
446 1 5 -1.050000  9.214254000  6.912527000  6.340114000
447 1 5 -1.050000 10.695569000  2.105773000  3.682197000
448 1 5 -1.050000  9.701393000  6.912527000 13.704508000
449 1 5 -1.050000  8.220079000  2.105773000 16.362427000
450 1 9 -1.168800  4.612904000  2.403377000 26.384737000
451 1 9 -1.168800  6.094218000 15.633224000 23.726820000
452 1 9 -1.168800  5.100043000  2.403377000 33.749130000
453 1 9 -1.168800  3.618728000 15.633224000 36.407047000
454 1 5 -1.050000  7.225904000  6.912527000 26.384737000
455 1 5 -1.050000  8.707217000  2.105773000 23.726820000
456 1 5 -1.050000  7.713042000  6.912527000 33.749130000
457 1 5 -1.050000  6.231728000  2.105773000 36.407047000
458 1 5 -1.050000  6.601255000 11.421677000  6.340114000
459 1 5 -1.050000  8.082569000  6.614923000  3.682197000
460 1 9 -1.168800  7.088394000 11.421677000 13.704508000
461 1 5 -1.050000  5.607080000  6.614923000 16.362427000
462 1 5 -1.050000  9.214254000 15.930827000  6.340114000
463 1 5 -1.050000 10.695569000 11.124073000  3.682197000
464 1 5 -1.050000  9.701393000 15.930827000 13.704508000
465 1 5 -1.050000  8.220079000 11.124073000 16.362427000
466 1 9 -1.168800  4.612904000 11.421677000 26.384737000
467 1 5 -1.050000  6.094218000  6.614923000 23.726820000
468 1 9 -1.168800  5.100043000 11.421677000 33.749130000
469 1 5 -1.050000  3.618728000  6.614923000 36.407047000
470 1 5 -1.050000  7.225904000 15.930827000 26.384737000
471 1 5 -1.050000  8.707217000 11.124073000 23.726820000
472 1 5 -1.050000  7.713042000 15.930827000 33.749130000
473 1 5 -1.050000  6.231728000 11.124073000 36.407047000
474 1 9 -1.168800  4.037447000  5.446152000  8.077983000
475 1 5 -1.050000  0.194376000  3.572149000  1.944328000
476 1 5 -1.050000 -0.799799000  5.446152000 11.966640000
477 1 5 -1.050000  3.043272000  3.572149000 18.100294000
478 1 5 -1.050000  2.049097000  5.446152000 28.122606000
479 1 9 -1.168800 -1.793975000  3.572149000 21.988951000
480 1 9 -1.168800 -2.788150000  5.446152000 32.011261000
481 1 5 -1.050000  1.054921000  3.572149000 38.144917000
482 1 9 -1.168800  1.424448000  9.955301000  8.077983000
483 1 5 -1.050000 13.259376000  8.081299000  1.944328000
484 1 5 -1.050000 12.265200000  9.955301000 11.966640000
485 1 5 -1.050000  0.430272000  8.081299000 18.100294000
486 1 5 -1.050000  4.037447000 14.464451000  8.077983000
487 1 5 -1.050000  0.194376000 12.590449000  1.944328000
488 1 9 -1.168800 -0.799799000 14.464451000 11.966640000
489 1 9 -1.168800  3.043272000 12.590449000 18.100294000
490 1 9 -1.168800 -0.563903000  9.955301000 28.122606000
491 1 5 -1.050000 11.271025000  8.081299000 21.988951000
492 1 9 -1.168800 10.276849000  9.955301000 32.011261000
493 1 9 -1.168800 -1.558079000  8.081299000 38.144917000
494 1 9 -1.168800  2.049097000 14.464451000 28.122606000
495 1 9 -1.168800 -1.793975000 12.590449000 21.988951000
496 1 5 -1.050000 -2.788150000 14.464451000 32.011261000
497 1 9 -1.168800  1.054921000 12.590449000 38.144917000
498 1 5 -1.050000 14.489448000  5.446152000  8.077983000
499 1 9 -1.168800  5.420377000  3.572149000  1.944328000
500 1 5 -1.050000  4.426201000  5.446152000 11.966640000
501 1 5 -1.050000 13.495272000  3.572149000 18.100294000
502 1 5 -1.050000 12.501097000  5.446152000 28.122606000
503 1 5 -1.050000  3.432026000  3.572149000 21.988951000
504 1 9 -1.168800  2.437850000  5.446152000 32.011261000
505 1 5 -1.050000 11.506921000  3.572149000 38.144917000
506 1 9 -1.168800 11.876448000  9.955301000  8.077983000
507 1 5 -1.050000  2.807377000  8.081299000  1.944328000
508 1 9 -1.168800  1.813201000  9.955301000 11.966640000
509 1 9 -1.168800 10.882272000  8.081299000 18.100294000
510 1 9 -1.168800 14.489448000 14.464451000  8.077983000
511 1 5 -1.050000  5.420377000 12.590449000  1.944328000
512 1 9 -1.168800  4.426201000 14.464451000 11.966640000
513 1 5 -1.050000 13.495272000 12.590449000 18.100294000
514 1 5 -1.050000  9.888096000  9.955301000 28.122606000
515 1 5 -1.050000  0.819025000  8.081299000 21.988951000
516 1 5 -1.050000 -0.175150000  9.955301000 32.011261000
517 1 5 -1.050000  8.893921000  8.081299000 38.144917000
518 1 5 -1.050000 12.501097000 14.464451000 28.122606000
519 1 5 -1.050000  3.432026000 12.590449000 21.988951000
520 1 5 -1.050000  2.437850000 14.464451000 32.011261000
521 1 9 -1.168800 11.506921000 12.590449000 38.144917000
522 1 5 -1.050000  9.263447000  5.446152000  8.077983000
523 1 5 -1.050000 10.646377000  3.572149000  1.944328000
524 1 5 -1.050000  9.652201000  5.446152000 11.966640000
525 1 5 -1.050000  8.269272000  3.572149000 18.100294000
526 1 5 -1.050000  7.275096000  5.446152000 28.122606000