LAMMPS (9 Dec 2014)
# 4 layer nanoparticle of K-illite

variable Tdesired equal 900
variable rampLength equal 1000
variable Tstart equal 100
variable runLength equal 1000
variable xReplica equal 1
variable yReplica equal 1

units metal #defines the units: time in ps, distances in Angstrom, energies in eV, etc.

dimension 3 #3-D system

atom_style full

#LJ+coulomb solved up to 15 Angstrom, coulomb solved in k-space beyond 15 A

pair_style lj/cut/coul/long 15.0

#Lorentz-Berthelot combining rules for the LJ interactions
pair_modify mix arithmetic

# Bond and angles exist
bond_style harmonic
#angle_style harmonic

#increasing the page size as the distance used is 15 angstorm
# ??? The values are arbitrary for now; should try lower values
neigh_modify one 50000 page 50000000

#Setting up the system

#input file
#There should be an accompanying file named "cutoff_file.illite" that contains
# the what atoms are what types - please see that; if it's not there
# please reach me at kedar.kolluri@gmail.com

read_data dat_lammps.test_data
  triclinic box = (0 0 0) to (15.678 18.0366 40.0892) with tilt (0 -3.97671 0)
  1 by 1 by 1 MPI processor grid
  reading atoms ...
  993 atoms
  scanning bonds ...
  1 = max bonds/atom
  scanning angles ...
  2 = max angles/atom
  reading velocities ...
  993 velocities
  reading bonds ...
  96 bonds
  reading angles ...
  192 angles
  1 = max # of 1-2 neighbors
  0 = max # of 1-3 neighbors
  0 = max # of 1-4 neighbors
  1 = max # of special neighbors

#Lennard-Jones pair coefficients for all atom types (the units are eV and Angstrom)
# please see comment for read_data command for details on what atom is what type

pair_coeff      1       1       7.98102e-8      3.30203 #Si_base_tet-Si_base_tet
#pair_coeff     1       1       0 0

pair_coeff      2       2       7.98102e-8      3.30203 #Si_oct-Si_oct
#pair_coeff      2       2       0 0

pair_coeff      3       3       5.76646e-8      4.27124 #Al_oct-Al_oct
#pair_coeff     3       3       0 0

pair_coeff      4       4       5.76646e-8      4.27124 #Al_tet-Al_tet
#pair_coeff     4       4       0 0

pair_coeff      5       5       6.73853e-3      3.16556 #O_regular-O_regular
#pair_coeff     5       5       0 0

pair_coeff      6       6       6.73853e-3      3.16556 #O_hydroxyl-O_hydroxly
#pair_coeff     6       6       0 0

pair_coeff      7       7       4.337e-3        3.33200 #K from Dang (1995)
#pair_coeff     7       7       0 0

pair_coeff      8       8       0.0             0.00000 #H_hydroxyl-H_hydroxyl

pair_coeff      9       9       6.73853e-3      3.16556 #O_bridge-O_bridge
#pair_coeff     9       9       0 0

pair_coeff      10      10      0.0             0.00000 #dummy - no such type exists


#Begin- Info from Laura's matlab file
#bondcoeffs = [1, 24.0291, 1.0; 2, 24.0291, 1.0; 3, 0.0, 1.65;...
#              4.0, 0.0, 2.05; 5, 24.0291, 1.0]; %Bond coefficients
#where 1. O-H (6-9), 2. O-He(NA), 3. Si-Oe(NA), 4. Al-Oe(NA), 5. Hw-Ow(NA)

#anglecoeffs = [1, 1.30090, 109.47; 2, 1.30090, 109.47; 3, 1.98472, 109.47;...
#                4, 1.98472, 109.47]; %Angle coefficients
#where % Angle types: 1. Si-O-H (1, 2), 2. Al-O-H (3, 4), 3. He-O-He(NA), 4. Hw-Ow-Hw(NA)
#End- Info is from Laura's matlab file

#relevant bond information for this case
bond_coeff 1 24.0291 1.0
#bond_coeff 1 0.0 0.0

#relevant angle information for this case
#angle_coeff 1 1.30090 109.47
#angle_coeff 2 1.30090 109.47
#angle_coeff 3 1.98472 109.47
#angle_coeff 4 1.98472 109.47
#angle_coeff 1 0 0
#angle_coeff 2 0 0
#angle_coeff 3 0 0
#angle_coeff 4 0 0

#k-space solver parameters (for electrostatic interactions)
kspace_style pppm 1e-5


minimize 0.0 0.0 1000 100000
WARNING: Resetting reneighboring criteria during minimization (../min.cpp:168)
PPPM initialization ...
WARNING: System is not charge neutral, net charge = -0.0066 (../kspace.cpp:294)
  G vector (1/distance) = 0.222203
  grid = 15 16 30
  stencil order = 5
  estimated absolute RMS force accuracy = 7.94014e-05
  estimated relative force accuracy = 5.51413e-06
  using double precision FFTs
  3d grid and FFT values/proc = 18722 7200
Memory usage per processor = 16.0971 Mbytes
Step Temp E_pair E_mol TotEng Press 
       0            0   -9062.9207 0.0031942773   -9062.9175    393795.91 
     297            0   -9970.2881    1.9380019   -9968.3501    3736.0942 
Loop time of 27.932 on 1 procs for 297 steps with 993 atoms

Minimization stats:
  Stopping criterion = linesearch alpha is zero
  Energy initial, next-to-last, final = 
        -9062.91746879     -9968.35013878     -9968.35013878
  Force two-norm initial, final = 654.574 0.033926
  Force max component initial, final = 74.6548 0.0103796
  Final line search alpha, max atom move = 7.62939e-06 7.91903e-08
  Iterations, force evaluations = 297 636

Pair  time (%) = 25.641 (91.7978)
Bond  time (%) = 0.00249982 (0.00894966)
Kspce time (%) = 1.89395 (6.78057)
Neigh time (%) = 0.27707 (0.991945)
Comm  time (%) = 0.0880966 (0.315397)
Outpt time (%) = 0 (0)
Other time (%) = 0.0294108 (0.105294)

Nlocal:    993 ave 993 max 993 min
Histogram: 1 0 0 0 0 0 0 0 0 0
Nghost:    15976 ave 15976 max 15976 min
Histogram: 1 0 0 0 0 0 0 0 0 0
Neighs:    895143 ave 895143 max 895143 min
Histogram: 1 0 0 0 0 0 0 0 0 0

Total # of neighbors = 895143
Ave neighs/atom = 901.453
Ave special neighs/atom = 0.193353
Neighbor list builds = 4
Dangerous builds = 0
minimize 0.0 0.0 1000 100000
WARNING: Resetting reneighboring criteria during minimization (../min.cpp:168)
PPPM initialization ...
  G vector (1/distance) = 0.222203
  grid = 15 16 30
  stencil order = 5
  estimated absolute RMS force accuracy = 7.94014e-05
  estimated relative force accuracy = 5.51413e-06
  using double precision FFTs
  3d grid and FFT values/proc = 18722 7200
Memory usage per processor = 16.0971 Mbytes
Step Temp E_pair E_mol TotEng Press 
     297            0   -9970.2881    1.9380019   -9968.3501    3736.0942 
     301            0   -9970.2882    1.9380574   -9968.3502    3736.8162 
Loop time of 2.0134 on 1 procs for 4 steps with 993 atoms

Minimization stats:
  Stopping criterion = linesearch alpha is zero
  Energy initial, next-to-last, final = 
        -9968.35013878     -9968.35018269     -9968.35018269
  Force two-norm initial, final = 0.033926 0.0314785
  Force max component initial, final = 0.0103796 0.00512829
  Final line search alpha, max atom move = 7.62939e-06 3.91257e-08
  Iterations, force evaluations = 4 47

Pair  time (%) = 1.86983 (92.8693)
Bond  time (%) = 0.000187397 (0.00930749)
Kspce time (%) = 0.135319 (6.72094)
Neigh time (%) = 0 (0)
Comm  time (%) = 0.00635338 (0.315555)
Outpt time (%) = 0 (0)
Other time (%) = 0.00171018 (0.0849397)

Nlocal:    993 ave 993 max 993 min
Histogram: 1 0 0 0 0 0 0 0 0 0
Nghost:    15963 ave 15963 max 15963 min
Histogram: 1 0 0 0 0 0 0 0 0 0
Neighs:    895166 ave 895166 max 895166 min
Histogram: 1 0 0 0 0 0 0 0 0 0

Total # of neighbors = 895166
Ave neighs/atom = 901.476
Ave special neighs/atom = 0.193353
Neighbor list builds = 0
Dangerous builds = 0
minimize 0.0 0.0 1000 100000
WARNING: Resetting reneighboring criteria during minimization (../min.cpp:168)
PPPM initialization ...
  G vector (1/distance) = 0.222203
  grid = 15 16 30
  stencil order = 5
  estimated absolute RMS force accuracy = 7.94014e-05
  estimated relative force accuracy = 5.51413e-06
  using double precision FFTs
  3d grid and FFT values/proc = 18722 7200
Memory usage per processor = 16.0971 Mbytes
Step Temp E_pair E_mol TotEng Press 
     301            0   -9970.2882    1.9380574   -9968.3502    3736.8162 
     302            0   -9970.2882    1.9380574   -9968.3502    3736.8162 
Loop time of 1.57229 on 1 procs for 1 steps with 993 atoms

Minimization stats:
  Stopping criterion = linesearch alpha is zero
  Energy initial, next-to-last, final = 
        -9968.35018269     -9968.35018269     -9968.35018269
  Force two-norm initial, final = 0.0314785 0.0314785
  Force max component initial, final = 0.00512829 0.00512829
  Final line search alpha, max atom move = 7.62939e-06 3.91257e-08
  Iterations, force evaluations = 1 35

Pair  time (%) = 1.45891 (92.7887)
Bond  time (%) = 0.000156403 (0.00994743)
Kspce time (%) = 0.106665 (6.78405)
Neigh time (%) = 0 (0)
Comm  time (%) = 0.005198 (0.3306)
Outpt time (%) = 0 (0)
Other time (%) = 0.00136352 (0.0867215)

Nlocal:    993 ave 993 max 993 min
Histogram: 1 0 0 0 0 0 0 0 0 0
Nghost:    15963 ave 15963 max 15963 min
Histogram: 1 0 0 0 0 0 0 0 0 0
Neighs:    895166 ave 895166 max 895166 min
Histogram: 1 0 0 0 0 0 0 0 0 0

Total # of neighbors = 895166
Ave neighs/atom = 901.476
Ave special neighs/atom = 0.193353
Neighbor list builds = 0
Dangerous builds = 0
minimize 0.0 0.0e-8 1000 100000
WARNING: Resetting reneighboring criteria during minimization (../min.cpp:168)
PPPM initialization ...
  G vector (1/distance) = 0.222203
  grid = 15 16 30
  stencil order = 5
  estimated absolute RMS force accuracy = 7.94014e-05
  estimated relative force accuracy = 5.51413e-06
  using double precision FFTs
  3d grid and FFT values/proc = 18722 7200
Memory usage per processor = 16.0971 Mbytes
Step Temp E_pair E_mol TotEng Press 
     302            0   -9970.2882    1.9380574   -9968.3502    3736.8162 
     303            0   -9970.2882    1.9380574   -9968.3502    3736.8162 
Loop time of 1.60999 on 1 procs for 1 steps with 993 atoms

Minimization stats:
  Stopping criterion = linesearch alpha is zero
  Energy initial, next-to-last, final = 
        -9968.35018269     -9968.35018269     -9968.35018269
  Force two-norm initial, final = 0.0314785 0.0314785
  Force max component initial, final = 0.00512829 0.00512829
  Final line search alpha, max atom move = 7.62939e-06 3.91257e-08
  Iterations, force evaluations = 1 35

Pair  time (%) = 1.49642 (92.9457)
Bond  time (%) = 0.000133514 (0.00829288)
Kspce time (%) = 0.106819 (6.63478)
Neigh time (%) = 0 (0)
Comm  time (%) = 0.00531578 (0.330175)
Outpt time (%) = 0 (0)
Other time (%) = 0.0013051 (0.0810629)

Nlocal:    993 ave 993 max 993 min
Histogram: 1 0 0 0 0 0 0 0 0 0
Nghost:    15963 ave 15963 max 15963 min
Histogram: 1 0 0 0 0 0 0 0 0 0
Neighs:    895166 ave 895166 max 895166 min
Histogram: 1 0 0 0 0 0 0 0 0 0

Total # of neighbors = 895166
Ave neighs/atom = 901.476
Ave special neighs/atom = 0.193353
Neighbor list builds = 0
Dangerous builds = 0

replicate ${xReplica} ${yReplica} 1
replicate 1 ${yReplica} 1
replicate 1 1 1
  triclinic box = (0 0 0) to (15.678 18.0366 40.0892) with tilt (0 -3.97671 0)
  1 by 1 by 1 MPI processor grid
  993 atoms
  96 bonds
  192 angles
  1 = max # of 1-2 neighbors
  0 = max # of 1-3 neighbors
  0 = max # of 1-4 neighbors
  1 = max # of special neighbors

#equations of motion solved with the Verlet algorithm
run_style verlet


#define atoms that will move
#for now, all atoms are moving but there will be a problem with that
group mobile type 1 2 3 4 5 6 7 8 9 10
993 atoms in group mobile


#use only temp of mobile atoms so that appropriate velocity is assigned to them
#otherwsie average velocity will be much lower and actual simulation temp will be much lower than desired simulation temp
compute mobile_temp mobile temp

#compute stress (all contributions) for only mobile atoms
# don't know what to do with pressure, really but lets just compute for now
compute mobile_stress mobile stress/atom mobile_temp

# pressure in GPa
variable press_gpa equal press*0.0001

compute energy all pe/atom
compute pe all reduce sum c_energy

compute bond_energy all pe/atom bond
compute ebond all reduce sum c_bond_energy

group katoms type 7
33 atoms in group katoms

compute katom_disp katoms displace/atom
compute max_katom_disp all reduce max c_katom_disp[4]

compute allatom_disp all displace/atom
compute max_allatom_disp all reduce max c_allatom_disp[4]

#logging simulation data
thermo_style custom step etotal ke enthalpy temp v_press_gpa c_max_allatom_disp c_max_katom_disp cpu

#frequency with which the thermodynamic output will be reported
thermo 1

velocity all create ${Tstart} 4945790 rot yes mom yes dist uniform
velocity all create 100 4945790 rot yes mom yes dist uniform
timestep 0.001
fix nvt_warmup all nvt temp ${Tstart} ${Tdesired} 0.05
fix nvt_warmup all nvt temp 100 ${Tdesired} 0.05
fix nvt_warmup all nvt temp 100 900 0.05
fix momfix all momentum 5 linear 1 1 1 angular
run ${rampLength}
run 1000
PPPM initialization ...
  G vector (1/distance) = 0.222203
  grid = 15 16 30
  stencil order = 5
  estimated absolute RMS force accuracy = 7.94014e-05
  estimated relative force accuracy = 5.51413e-06
  using double precision FFTs
  3d grid and FFT values/proc = 18722 7200
Memory usage per processor = 19.72 Mbytes
Step TotEng KinEng Enthalpy Temp press_gp max_alla max_kato CPU 
     303   -9955.5276    12.822606    -9920.539          100     0.494497 5.3290705e-15 3.5527137e-15            0 
     304   -9955.4961    12.449697   -9921.1367    97.091782    0.4856038  0.023190564 0.0036420536  0.041672945 
     305   -9955.4538    11.721394   -9920.8581    91.411944   0.48894424  0.045173205 0.0072819133  0.088392019 
     306   -9955.4673    11.162755    -9918.996    87.055277   0.51545286  0.065642308  0.010917001   0.12891102 
     307   -9955.5032    10.606474   -9916.0126    82.716988   0.55812368  0.085272542  0.014544526   0.17522812 
     308   -9955.4854    9.6010473   -9913.0347    74.875942    0.5999604   0.10461218  0.018161158   0.21652412 
     309   -9955.4287    8.3315118    -9910.572    64.975182   0.63396476    0.1232966  0.021763523   0.25811315 
     310   -9955.4128    7.4440416   -9908.5398    58.054044   0.66245899   0.14056031  0.025348685   0.30762815 
     311   -9955.4462    7.0580473   -9907.2989    55.043781   0.68046952      0.15609  0.028913661   0.35816312 
     312   -9955.4516    6.6540509   -9907.6435    51.893123   0.67567662   0.16998543  0.032457849     0.409832 
     313   -9955.3995    6.0223358   -9909.5732     46.96655   0.64766762   0.18211748  0.035980278   0.46942306 
     314   -9955.3587    5.6346752   -9911.9385    43.943291   0.61366212   0.19446064  0.039479984   0.52522707 
     315   -9955.3768    5.8028229   -9913.7277    45.254628   0.58863018   0.20686012  0.042955587   0.58052111 
     316   -9955.3965    6.0854586   -9915.0416    47.458827   0.57033965   0.21846902  0.046403262   0.63071418 
     317   -9955.3536    5.9801531   -9916.3354    46.637579   0.55144734   0.22880431  0.049822237   0.69566202 
     318   -9955.2871    5.7244674    -9917.392    44.643555   0.53557545    0.2372572  0.053209748   0.75219202 
     319   -9955.2721    5.8337182    -9917.799    45.495572    0.5296106    0.2434555  0.056563322   0.79862595 
     320   -9955.2906    6.1768338   -9917.9603    48.171438   0.52759271   0.24753403   0.05988104   0.85401011 
     321   -9955.2628    6.1879454   -9918.6925    48.258094   0.51685168   0.25005085  0.063159785   0.89507508 
     322    -9955.187    5.8483325   -9919.9279    45.609546   0.49831936   0.25164935  0.066399889   0.94237518 
     323   -9955.1435    5.7389666   -9920.7189    44.756631   0.48652594   0.25278415   0.06959967   0.98529315 
     324   -9955.1579    6.0585485   -9920.6224    47.248962   0.48809306   0.25360297   0.07275672    1.0348802 
     325   -9955.1571     6.292569    -9920.245    49.074025   0.49341584   0.25389632  0.075867814     1.084707 
     326   -9955.0956    6.1035243   -9920.1548    47.599716   0.49382133   0.25312134  0.078931765     1.125917 
     327   -9955.0347    5.9052939   -9920.0903    46.053772   0.49387237   0.25064029  0.081942225     1.169049 
     328   -9955.0352    6.1313722   -9919.7548    47.816895   0.49862116   0.25131402  0.084895978    1.2168221 
     329   -9955.0533    6.4622091   -9919.6718    50.397001   0.50004914   0.25390152  0.087806846    1.2585211 
     330   -9955.0143    6.3545953   -9920.4196     49.55775   0.48893052   0.25592953  0.090864766    1.3031981 
     331   -9954.9418    5.9686127   -9921.4876    46.547578   0.47281062   0.25855947  0.093854412     1.358187 
     332    -9954.917    5.8932969   -9921.7588    45.960211   0.46862824    0.2663615  0.096788156     1.400136 
     333   -9954.9382     6.144407   -9920.9737     47.91855   0.48002422   0.27386458  0.099663138     1.440814 
     334   -9954.9239    6.1605613   -9919.8713    48.044533    0.4954013   0.28213713   0.10247742     1.481318 
     335   -9954.8535    5.8026466   -9918.9309    45.253254   0.50769726   0.29084242   0.10522983    1.5263481 
     336   -9954.8031    5.6265303   -9917.9085    43.879771   0.52143492   0.29811637   0.10790629     1.581943 
     337   -9954.8141    5.9472658   -9916.8343      46.3811   0.53677159   0.30317937   0.11051966    1.6227291 
     338   -9954.8212    6.3045304    -9916.505    49.167308   0.54152609    0.3074098   0.11306949    1.6630421 
     339   -9954.7644    6.2508308    -9917.373     48.74852   0.52845582    0.3120885   0.11555553    1.7054861 
     340   -9954.6923     6.106131   -9918.6305    47.620045   0.50966432   0.31653799   0.11797802    1.7476141 
     341   -9954.6779     6.378912   -9919.1202     49.74739   0.50253948   0.31960807   0.12032929     1.788022 
     342   -9954.6922    6.8545245   -9918.7324    53.456562   0.50822391   0.32172316   0.12261995    1.8306081 
     343   -9954.6533     6.933281   -9918.1411    54.070762   0.51603058   0.32403579   0.12485274      1.87045 
     344   -9954.5687    6.6431765   -9917.5547    51.808316   0.52312192   0.32617812   0.12703082    1.9129121 
     345   -9954.5222      6.58266   -9916.6719    51.336365   0.53494124   0.32661454   0.12915736     1.956286 
     346   -9954.5304    6.8892481   -9915.7875    53.727361    0.5475575   0.32505898   0.13122932    2.0047691 
     347   -9954.5138    7.0117692   -9915.8736     54.68287   0.54610632   0.32285662   0.13325469     2.050302 
     348   -9954.4348    6.6810638   -9917.2291    52.103789   0.52583188   0.32074234   0.13523526     2.099577 
     349   -9954.3634    6.3997347   -9918.8924    49.909781   0.50131488   0.31771543   0.13717265    2.1405032 
     350    -9954.357    6.5971841   -9919.8902    51.449635   0.48712136   0.31296124   0.13906859     2.182318 
     351   -9954.3609    6.9019394   -9920.3803    53.826338   0.48025151   0.30742426   0.14091992     2.223501 
     352   -9954.3027    6.7873507   -9920.9754    52.932692    0.4710172   0.30217409   0.14273376     2.264374 
     353   -9954.2169    6.4790777   -9921.5945    50.528555   0.46105495    0.2962591   0.14451178    2.3053541 
     354   -9954.1856    6.5567344   -9921.8355    51.134178   0.45720818   0.28785307   0.14625495    2.3463941 
     355   -9954.1961    6.9366817   -9922.0685    54.097283   0.45406282    0.2816225   0.14796332     2.390907 
     356   -9954.1622    6.9979242   -9923.1046    54.574897    0.4389395   0.29199779   0.14963016    2.4315321 
     357   -9954.0734    6.6422009   -9924.7933    51.800708   0.41381795   0.30252217      0.15126     2.472194 
     358   -9954.0128    6.4614922   -9925.9106    50.391411   0.39717043    0.3098425   0.15285117     2.519664 
     359   -9954.0147     6.720643    -9925.679    52.412457   0.40047078   0.31343977    0.1544022    2.5612881 
     360   -9954.0045    6.9098413   -9924.5575    53.887962   0.41617616   0.31488718   0.15591198    2.6091461 
     361   -9953.9282     6.641339    -9923.214    51.793986   0.43408623   0.31630566   0.15737319    2.6504021 
     362   -9953.8457     6.340769   -9921.5853    49.449923   0.45594002     0.318847   0.15879154    2.6907411 
     363    -9953.828    6.5323667   -9919.5849    50.944141   0.48396114   0.32275004   0.16016582    2.7316701 
     364   -9953.8341    6.9443456   -9917.9915    54.157052   0.50656604   0.32780816   0.16149441    2.7773499 
     365   -9953.7812    6.9786653   -9917.6603    54.424702   0.51050068   0.33298493    0.1627754    2.8254511 
     366   -9953.6879    6.7374016    -9918.175    52.543153   0.50190681   0.33621199   0.16400103     2.866657 
     367   -9953.6411    6.8327688   -9918.2331    53.286895   0.50042503     0.335619     0.165176    2.9089351 
     368   -9953.6464    7.3088046   -9917.2809    56.999368   0.51395619   0.33119774   0.16629977    2.9496191 
     369   -9953.6172     7.540848   -9915.8894    58.809011   0.53320943   0.32479495    0.1673726     2.991477 
     370   -9953.5245    7.2952973   -9914.5174    56.894028   0.55129121    0.3185183   0.16839531    3.0332081 
     371    -9953.447    7.1252924   -9912.9349    55.568207   0.57256106   0.31354108   0.16936344     3.080951 
     372   -9953.4363    7.4142914   -9911.2276    57.822031   0.59653903   0.31022351   0.17028347    3.1222181 
     373   -9953.4272    7.7180146   -9910.3642    60.190685   0.60861404   0.30837118     0.171156     3.168716 
     374    -9953.351    7.5404396   -9911.0235    58.805826   0.59821893   0.30732061   0.17198138    3.2102911 
     375   -9953.2549    7.2043305   -9912.4609    56.184603   0.57654452   0.31849996   0.17275999    3.2487411 
     376   -9953.2198    7.3091736   -9913.3617    57.002246   0.56331879   0.32942218   0.17348659    3.2871721 
     377   -9953.2221    7.7027516    -9913.424    60.071653   0.56246989   0.34007409   0.17416824    3.3261731 
     378   -9953.1724    7.7455581    -9913.255    60.405489   0.56415646   0.35065824   0.17480638     3.367759 
     379   -9953.0707    7.4125531   -9913.0494    57.808474   0.56562532   0.36136133   0.17540249    3.4103351 
     380   -9953.0067    7.3320765   -9912.4383    57.180859   0.57335679    0.3722616   0.17595774     3.450773 
     381   -9953.0039    7.6945488   -9911.6518    60.007682   0.58443324     0.383401   0.17646641     3.492976 
     382   -9952.9797    7.9128718   -9911.6967    61.710323   0.58345607   0.39475286   0.17693499     3.533838 
     383   -9952.8868    7.6316836   -9912.9261    59.517413   0.56476781   0.40603622   0.17736292    3.5857902 
     384   -9952.7962      7.34266   -9914.2879    57.263397   0.54424169   0.41677492   0.17774953    3.6271172 
     385   -9952.7745    7.5410729   -9914.6018    58.810765   0.53949908   0.42665857   0.17809429     3.668601 
     386    -9952.769    7.8769781   -9913.9282    61.430398   0.54894094   0.43581256   0.17839185     3.709697 
     387   -9952.6982    7.7658258   -9912.9856    60.563551   0.56126277   0.44468016   0.17864784     3.749974 
     388    -9952.593    7.4093672   -9911.8862    57.783629   0.57531317   0.45368817   0.17886245    3.7912791 
     389   -9952.5433      7.45816   -9910.3998     58.16415    0.5956178   0.46306841   0.17903571     3.831986 
     390   -9952.5432    7.8925491   -9909.1074    61.551832   0.61388129   0.47282916   0.17916726    3.8733871 
     391   -9952.5006    8.0532772   -9909.1047    62.805306   0.61331872    0.4826924   0.17925409     3.914238 
     392   -9952.3954    7.7724932    -9910.428    60.615548   0.59312934   0.49209206    0.1792976    3.9590461 
     393   -9952.3155    7.6543752   -9911.7846    59.694379   0.57282675   0.50042508   0.17929711    3.9994671 
     394   -9952.3034    8.0184846   -9912.1468    62.533969    0.5675368   0.50747984   0.17925235    4.0397151 
     395   -9952.2839    8.3326942   -9911.7822    64.984403   0.57241507   0.51361104   0.17916362    4.0854571 
     396   -9952.1923    8.1222833    -9911.295    63.343466   0.57800563    0.5194832     0.179032    4.1292372 
     397    -9952.088     7.789542   -9910.5939    60.748507   0.58644004   0.52569647   0.17885755    4.1696692 
     398   -9952.0513    7.9257158   -9909.5699     61.81049   0.60039411   0.53253902    0.1786408     4.209548 
     399   -9952.0457    8.2977777   -9909.0897    64.712099   0.60710077   0.53992222   0.17838189     4.250494 
     400   -9951.9803    8.2597875   -9910.2051    64.415823   0.59041154   0.54735036   0.17808057     4.291045 
     401   -9951.8668     7.880962   -9912.6009    61.461467   0.55494891     0.554038   0.17773679    4.3379791 
     402   -9951.8006    7.8378643   -9914.8414     61.12536   0.52234772   0.55933022   0.17734927     4.378695 
     403    -9951.795     8.251593    -9916.113    64.351917    0.5042966   0.56311332   0.17691795    4.4237821 
     404   -9951.7585    8.4750292   -9916.8076    66.094435   0.49396378   0.56589124   0.17644308    4.4640532 
     405   -9951.6521    8.2020971   -9917.2918    63.965912   0.48561763    0.5684372   0.17592503    4.5049741 
     406   -9951.5568    7.9877623   -9917.2254    62.294373   0.48520801   0.57136307   0.17536314    4.5454531 
     407   -9951.5336    8.2789819   -9916.5867    64.565515   0.49390706   0.57488915   0.17475757    4.5880342 
     408   -9951.5176    8.6311241   -9916.3742    67.311776   0.49668382   0.57875541   0.17410753    4.6289411 
     409   -9951.4309    8.4678374   -9917.4018    66.038348   0.48093693   0.58224191   0.17341176    4.6710131 
     410   -9951.3159    8.0777205   -9918.9614    62.995933   0.45727029   0.58441673   0.17266883     4.711699 
     411   -9951.2644     8.125365   -9919.6063    63.367499   0.44742687   0.58463759   0.17207612    4.7521241 
     412   -9951.2576    8.5148422   -9918.9011    66.404926   0.45729821   0.58294452   0.17277754     4.794445 
     413   -9951.1997    8.5674639   -9917.4883    66.815307    0.4764462   0.58003598   0.17346098    4.8355851 
     414   -9951.0822    8.2073355   -9915.7104    64.006764   0.49991164    0.5768309   0.17411861     4.876739 
     415   -9951.0001    8.1052273   -9913.3347    63.210451   0.53232768   0.57401989    0.1747425     4.918982 
     416   -9950.9867    8.5261634   -9910.7423    66.493216   0.56877661   0.57183553   0.17532224      4.96035 
     417   -9950.9562    8.8664353   -9909.1945    69.146904   0.59022184   0.56993825    0.1758527    5.0014801 
     418   -9950.8508    8.6864744   -9909.2848    67.743438   0.58745554   0.56751358   0.17632659     5.042186 
     419    -9950.741    8.4597273   -9909.9737    65.975099   0.57616727   0.56362128   0.17673694    5.0869031 
     420   -9950.7034    8.7436345   -9909.8653    68.189214   0.57716889   0.55776822   0.17707723    5.1314001 
     421    -9950.689    9.2029017   -9908.8053    71.770913   0.59194614   0.55028096   0.17734068    5.1753411 
     422   -9950.6061    9.1743971   -9907.4574    71.548613   0.60982546   0.55788181   0.17752253    5.2180591 
     423   -9950.4806    8.8056667   -9905.9637    68.672986   0.62916138   0.56727654   0.17761801    5.2608762 
     424   -9950.4101    8.7997546   -9904.1103    68.626879     0.654359   0.57445334   0.17762314    5.3029931 
     425   -9950.3973    9.2025582   -9902.5655    71.768235   0.67601183   0.57962999    0.1775348    5.3454041 
     426   -9950.3443    9.3266649   -9902.6314    72.736108   0.67433008   0.58412607   0.17735291     5.387955 
     427   -9950.2219     8.946884   -9904.5175    69.774302   0.64594454   0.58924137   0.17707384     5.434258 
     428   -9950.1212    8.7028364   -9906.8628    67.871041   0.61137461   0.59554317    0.1766968     5.476094 
     429   -9950.0955    9.0052001   -9908.3911    70.229093   0.58941216   0.60313066   0.17622156    5.5185699 
     430   -9950.0693    9.3309171    -9909.178     72.76927   0.57791918   0.61184632   0.17564844    5.5613379 
     431   -9949.9665    9.1293148   -9909.7615    71.197029   0.56822178   0.62092292   0.17498227    5.6093991 
     432    -9949.844     8.777203   -9909.9885    68.451006   0.56328029   0.62903226   0.17422013    5.6516662 
     433   -9949.7919    8.9297498   -9909.6455    69.640677   0.56739215   0.63530313   0.17336349    5.6959291 
     434   -9949.7786    9.3826766    -9909.584    73.172928   0.56807327    0.6402185   0.17241408     5.743443 
     435   -9949.7042    9.4153864   -9910.9628    73.428023   0.54753622   0.64521121   0.17137379     5.784054 
     436   -9949.5731    9.0312274    -9913.516    70.432072   0.50959857   0.65150552    0.1702481     5.825788 
     437   -9949.4872    8.9531424   -9915.6638    69.823109   0.47802931   0.65960126   0.16903547    5.8737221 
     438   -9949.4694    9.3773682   -9916.4045     73.13153   0.46730977   0.66951373   0.16773772     5.916487 
     439   -9949.4245    9.6365457   -9916.1158    75.152784   0.47075594   0.68078213   0.16635654     5.957978 
     440   -9949.3023     9.358332   -9915.3048    72.983071   0.48048887   0.69217466   0.16489354    5.9986022 
     441   -9949.1862    9.1177314   -9913.7799    71.106693   0.50040132    0.7021039   0.16335101    6.0410521 
     442   -9949.1482    9.4478788     -9911.66    73.681423   0.52982526   0.70985387   0.16172979    6.0947421 
     443   -9949.1245    9.9152147   -9910.1832    77.326048   0.55036093   0.71624234   0.16003167     6.136461 
     444   -9949.0246    9.8625392   -9910.4449    76.915245   0.54525073   0.72293342   0.15825861    6.1808372 
     445   -9948.8887    9.5427294   -9911.8346    74.421137   0.52368837   0.73126398   0.15641286    6.2229981 
     446   -9948.8176    9.6821302   -9912.7325    75.508285   0.50999412   0.74178009   0.15449419    6.2647521 
     447   -9948.7991    10.220089   -9912.4648    79.703681   0.51351539   0.75434455   0.15250803     6.309005 
     448   -9948.7285    10.404789   -9911.5537    81.144105   0.52539508   0.76798711   0.15045757    6.3513331 
     449   -9948.5894    10.083437   -9910.2837    78.637964   0.54137817   0.78087973   0.14834641     6.392657 
     450   -9948.4826    9.9580464   -9908.3334     77.66008    0.5674328   0.79122179   0.14617856    6.4330831 
     451   -9948.4523    10.361193   -9906.0544     80.80411   0.59921373   0.79856939   0.14395317    6.4732749 
     452   -9948.4096     10.66622   -9904.8511    83.182933   0.61561653   0.80422974   0.14168013    6.5219162 
     453   -9948.2853    10.361862    -9905.505    80.809331   0.60461754    0.8102441   0.13936468    6.5705111 
     454   -9948.1511    9.9374503   -9906.9872    77.499457   0.58177238   0.81814862   0.13701227    6.6128001 
     455   -9948.0961    10.045909   -9907.7234    78.345293   0.57059142   0.82846794   0.13462843      6.65465 
     456   -9948.0723    10.387398   -9907.3952    81.008473   0.57489366   0.84064844   0.13258627    6.6963592 
     457    -9947.978    10.243035   -9906.6332    79.882632   0.58433056   0.85300135   0.13369595    6.7424102 
     458   -9947.8339    9.7414251   -9905.5593     75.97071   0.59747029   0.86309497   0.13476564    6.7829192 
     459   -9947.7475    9.6626348   -9903.9206    75.356246   0.61940951   0.86908058   0.13579516     6.825201 
     460   -9947.7276    10.108956   -9902.4421    78.836982   0.64002347   0.87098481   0.13678476     6.871743 
     461   -9947.6679    10.337439   -9902.6281    80.618859   0.63655154   0.87065975   0.13773222     6.917989 
     462   -9947.5305    10.046601    -9904.829    78.350689   0.60350369   0.87047685   0.13864107    6.9567451 
     463   -9947.4108    9.8963652   -9907.5646    77.179045   0.56315014   0.87200451   0.13951183    6.9983501 
     464    -9947.373    10.356452   -9909.2623    80.767138   0.53862247   0.87553962   0.14034455    7.0585091 
     465    -9947.338    10.872124   -9909.7613    84.788718   0.53107581   0.88007885   0.14113867    7.1055491 
     466   -9947.2191    10.797265   -9909.5129    84.204919   0.53290424   0.88344596    0.1418821    7.1471422 
     467   -9947.0726    10.487403   -9908.3349    81.788387   0.54748279   0.88311541   0.14258431     7.189013 
     468   -9947.0002    10.666268   -9906.0561    83.183303   0.57866674   0.87768866   0.14324365     7.229506 
     469   -9946.9738    11.156408   -9903.7568    87.005778   0.61078968   0.86789831   0.14385852     7.272619 
     470   -9946.8841    11.174092   -9902.9731    87.143687   0.62059879    0.8560564   0.14442732    7.3194032 
     471   -9946.7297     10.68913   -9903.7045    83.361603   0.60807824   0.84449212   0.14493248    7.3614221 
     472   -9946.6209    10.495297   -9904.3691    81.849953   0.59714905   0.83447711   0.14538774    7.4018462 
     473   -9946.5901    10.862736   -9903.8339     84.71551   0.60427777   0.82607434   0.14579041     7.442137 
     474   -9946.5345    11.091144   -9902.4139    86.496797   0.62356067   0.81830413   0.14613721    7.4840741 
     475   -9946.3952     10.73832    -9900.633    83.745217   0.64676149   0.80934927   0.14642446    7.5261559 
     476    -9946.258    10.401238   -9898.2734    81.116408   0.67816997   0.79738493   0.14663839    7.5679901 
     477   -9946.2058    10.690124   -9895.4348    83.369352   0.71755111   0.78192358   0.14678565    7.6115081 
     478   -9946.1746    11.165674   -9893.4647    87.078035   0.74495373   0.76431225   0.14924913    7.6529601 
     479   -9946.0622    11.083177   -9893.6139    86.434663   0.74125667   0.74672384   0.15309453    7.6981711 
     480   -9945.9059    10.670152   -9895.2465      83.2136   0.71597371   0.73070264    0.1569007    7.7385421 
     481   -9945.8176    10.730028    -9896.488    83.680551   0.69717964   0.71675206    0.1606648    7.7814751 
     482   -9945.7912    11.250668   -9896.4135    87.740881   0.69785937   0.70480639   0.16438422     7.823154 
     483   -9945.7114    11.423855   -9895.4719    89.091518   0.71003961   0.69438612   0.16805706     7.865283 
     484   -9945.5543    11.048543   -9893.9865    86.164568   0.72881253   0.68446236   0.17168148     7.912173 
     485   -9945.4284     10.89049   -9891.6552    84.931955   0.75998072   0.67401156   0.17525532     7.953212 
     486   -9945.3879    11.366099   -9888.9033    88.641096   0.79830198   0.66305021   0.17878105     7.993022 
     487   -9945.3382    11.820368   -9887.3356    92.183817    0.8197551   0.65269366   0.18224955    8.0328882 
     488   -9945.1981    11.655155   -9887.9202    90.895366   0.80951364   0.64399162   0.18565647    8.0852611 
     489    -9945.042    11.362061   -9889.5571    88.609609   0.78417341   0.63706415   0.18899738    8.1293452 
     490   -9944.9701    11.668184   -9890.3873    90.996973   0.77142456   0.63158165   0.19226828    8.1679602 
     491   -9944.9358    12.265896   -9889.8585    95.658367   0.77841127   0.62746483   0.19547121    8.2090142 
     492   -9944.8251    12.326258   -9888.5221    96.129118   0.79573622   0.62452644   0.19859809    8.2509382 
     493   -9944.6544    11.918777    -9886.463     92.95128   0.82242403   0.62194478   0.20164648    8.2945731 
     494    -9944.542    11.880947   -9883.3674    92.656259   0.86458555    0.6187983   0.20461376     8.335027 
     495   -9944.5056    12.357672   -9880.0287    96.374105   0.91125893   0.61505448   0.20749694    8.3773432 
     496    -9944.429    12.539552   -9878.2113     97.79254   0.93586055   0.61142648   0.21029247    8.4180701 
     497   -9944.2654    12.062215   -9878.5305    94.069916   0.92903731   0.60823909   0.21299708     8.459229 
     498   -9944.1178    11.653296   -9879.5758    90.880868   0.91217735   0.60511804   0.21560784    8.5013092 
     499   -9944.0624    11.899665   -9879.7546    92.802235   0.90886758   0.60178479   0.21812277     8.542835 
     500   -9944.0169    12.259742    -9879.015    95.610377   0.91867748   0.59845171   0.22054089    8.5948272 
     501   -9943.8817    12.029799   -9878.0155    93.817112   0.93089236   0.59508383   0.22285258    8.6361542 
     502   -9943.7134    11.591239   -9876.6932    90.396904   0.94720231   0.59089453   0.22506728     8.676897 
     503   -9943.6265    11.773109    -9874.889    91.815253   0.97147377   0.58519752   0.22718494    8.7153001 
     504   -9943.5942     12.42009   -9873.7464    96.860881   0.98716518   0.57832873   0.22920505    8.7538052 
     505   -9943.4944    12.644895   -9874.9208    98.614078   0.96915773   0.57115461   0.23112668     8.792295 
     506   -9943.3187    12.340641   -9878.3615    96.241285   0.91804621   0.56393116   0.23293504    8.8307531 
     507   -9943.1882    12.340627   -9882.1489    96.241175   0.86267437   0.55631573   0.23464304     8.869159 
     508   -9943.1432    12.949201   -9884.7465    100.98728   0.82532696   0.54839174   0.23625049    8.9080081 
     509   -9943.0727      13.3851   -9886.2288    104.38673   0.80338077   0.54079279   0.23775774    8.9466012 
     510   -9942.9073    13.111144   -9887.0066    102.25023   0.79004966   0.53367213    0.2391653     8.985281 
     511   -9942.7386    12.757985   -9886.7508    99.496033   0.79128047   0.52637873   0.24046423    9.0238121 
     512   -9942.6634    13.035239   -9885.5262    101.65827   0.80752545   0.51852763   0.24166321     9.068809 
     513   -9942.6157    13.508336   -9884.8753    105.34782   0.81604995   0.51076672   0.24276096     9.113802 
     514   -9942.4807    13.356937   -9886.3586     104.1671   0.79317926   0.50387167   0.24375558    9.1525671 
     515   -9942.2956    12.808914   -9889.4665    99.893219   0.74663861   0.49771467   0.24464502    9.1911981 
     516   -9942.1838    12.766751   -9892.1863    99.564403   0.70661892   0.49186731   0.24542654     9.229701 
     517   -9942.1438    13.259182   -9893.3917    103.40474   0.68901834   0.48668785   0.24610018    9.2682002 
     518   -9942.0495    13.397273   -9893.4412    104.48167   0.68698446   0.48292234   0.24666569     9.306684 
     519   -9941.8682    12.915152   -9892.5818    100.72174   0.69656872   0.48034288   0.24712332    9.3451631 
     520   -9941.7188    12.634479    -9890.411    98.532849   0.72513775   0.48019118   0.24747342    9.3841162 
     521    -9941.664    13.045206   -9887.3764      101.736   0.76725164   0.48376585    0.2477246     9.422574 
     522   -9941.6032     13.45258   -9885.3604    104.91299   0.79488467   0.48585327   0.24786834     9.461122 
     523   -9941.4442    13.178547   -9885.6903    102.77588   0.78797494   0.48723522   0.24790456    9.4996471 
     524   -9941.2639    12.744111   -9887.4139    99.387835    0.7610658   0.48857287   0.24783364    9.5381951 
     525   -9941.1761    12.982689   -9888.6042    101.24844    0.7430037   0.49009437   0.24765685     9.593883 
     526   -9941.1336     13.60868   -9888.6362    106.13037   0.74195019   0.49151555   0.24739227     9.635896 
     527   -9941.0099    13.712479   -9888.0737    106.93987   0.74815257   0.49215312   0.24702739     9.677181 
     528   -9940.8166    13.334858   -9886.9711    103.99491   0.76100346   0.49118641   0.24656581    9.7185261 
     529   -9940.6847    13.391123   -9884.9238    104.43371   0.78807462   0.48806267   0.24601094    9.7597611 
     530   -9940.6375    14.067238   -9882.7409    109.70654   0.81825687   0.48281983    0.2453656     9.801033 
     531   -9940.5487    14.465096   -9882.3742    112.80933   0.82218566   0.48814627   0.24464864    9.8422101 
     532   -9940.3615    14.123275   -9884.5651    110.14356   0.78857623   0.49787453   0.24395077    9.8851981 
     533   -9940.1865    13.797274   -9887.7399    107.60117   0.74123347   0.50455077   0.24722188    9.9263391 
     534   -9940.1119    14.144055   -9889.9663    110.30562   0.70871113   0.50791653   0.25043383     9.965867 
     535   -9940.0515    14.583483    -9890.944    113.73259   0.69404084   0.50876721   0.25358372    10.004384 
     536   -9939.8926    14.312416   -9891.2235    111.61862   0.68784376   0.50795387    0.2566598     10.04306 
     537   -9939.6934    13.719785   -9890.6505    106.99685   0.69312839   0.50567913   0.25966847    10.092984 
     538   -9939.5822    13.746946   -9889.0331    107.20867   0.71441474   0.50190062   0.26260678    10.135238 
     539   -9939.5366    14.284068   -9887.7168    111.39754   0.73237396   0.49687777   0.26547117    10.175123 
     540   -9939.4206    14.375764   -9888.7424    112.11265   0.71623871   0.49071329   0.26825731    10.217308 
     541   -9939.2201    13.887579   -9892.3244    108.30543    0.6627814   0.49215342   0.27095543    10.269239 
     542   -9939.0675    13.748505    -9896.501    107.22083   0.60159645   0.51103256   0.27356499    10.318253 
     543   -9939.0123    14.340298   -9899.5515    111.83607    0.5577031   0.52984125   0.27608074    10.368315 
     544   -9938.9334    14.817452   -9901.4481    115.55726   0.52978241   0.54897207   0.27849769     10.41804 
     545    -9938.749    14.546507   -9902.5468    113.44423   0.51164932   0.56890414   0.28081113    10.472207 
     546   -9938.5569    14.185822   -9902.3978    110.63134   0.51103993    0.5898873   0.28301434    10.528062 
     547   -9938.4671    14.535097    -9901.007    113.35525   0.52942729   0.61188757   0.28510454    10.576294 
     548   -9938.4105     15.14056    -9900.107    118.07708   0.54134693   0.63447743   0.28707639    10.624554 
     549   -9938.2584    15.074673   -9901.5958    117.56325   0.51815497    0.6567337   0.28892411     10.67061 
     550   -9938.0458    14.550399   -9905.1345    113.47458   0.46513785   0.67748631   0.29064176    10.724262 
     551   -9937.9113    14.572571   -9908.6162     113.6475   0.41403062    0.6959527   0.29222388    10.779258 
     552   -9937.8587    15.215729   -9910.7906    118.66331   0.38255628   0.71224806   0.29366538    10.826551 
     553   -9937.7486    15.503798   -9911.9869    120.90988    0.3640915   0.72724457   0.29496213    10.873288 
     554   -9937.5393    15.104698   -9912.3996    117.79741   0.35530175    0.7420015    0.2961107    10.924137 
     555   -9937.3603    14.908239   -9911.4552    116.26528   0.36611908   0.75720953   0.29710803    10.976669 
     556   -9937.2869    15.477898   -9909.4861     120.7079   0.39291004   0.77285947   0.29795348    11.033311 
     557   -9937.2103    16.051855   -9908.4765    125.18402   0.40609767   0.78812474   0.29864151    11.084009 
     558    -9937.024    15.835392   -9909.8818    123.49589   0.38360311   0.80152725   0.29916888    11.137321 
     559   -9936.8098    15.361438   -9912.6496    119.79965   0.34145884   0.81158978    0.2995328    11.186249 
     560   -9936.6963    15.564078   -9914.5505    121.37998   0.31298803   0.81767761   0.29973139    11.239764 
     561   -9936.6369     16.16275   -9914.7384    126.04886   0.30949418   0.82040456   0.29976463     11.28831 
     562     -9936.49     16.15554   -9913.7209    125.99263   0.32179875   0.82128396   0.29963261    11.333099 
     563   -9936.2645    15.573252   -9911.5054    121.45154   0.34992264   0.82190978   0.29933703    11.382093 
     564   -9936.1054    15.452683   -9907.6287    120.51125   0.40246329   0.82322609   0.29888019     11.42215 
     565   -9936.0428    16.061264   -9903.0118    125.25741   0.46683005   0.82513758    0.2982645    11.462117 
     566   -9935.9393    16.441393   -9899.9464    128.22193   0.50869086   0.82649525   0.29749194    11.508274 
     567    -9935.727    16.071381   -9899.4473     125.3363   0.51274404   0.82555011   0.29656563    11.549755 
     568   -9935.5253    15.772275   -9899.9198    123.00366   0.50321618   0.82084646   0.29548888    11.591384 
     569    -9935.435    16.281752   -9899.2321    126.97693   0.51165896   0.81210194   0.29426608    11.638609 
     570   -9935.3625    16.954949   -9896.9514    132.22701   0.54286729   0.80043214   0.29290287    11.679932 
     571   -9935.1804    16.848106   -9893.5805    131.39377   0.58793609   0.78774873   0.29140598    11.719447 
     572   -9934.9489    16.324793   -9888.8639    127.31259   0.65132387   0.79798022   0.28978264    11.763814 
     573   -9934.8113    16.409944   -9882.5237    127.97667   0.73898505    0.8166655   0.28803995    11.805788 
     574   -9934.7473    17.007433   -9876.0836    132.63632   0.82909999   0.83101422   0.28618437    11.862597 
     575   -9934.6074    17.071449   -9872.0254    133.13556   0.88447753   0.84380289   0.28422158    11.912151 
     576   -9934.3725    16.444578   -9870.9605    128.24676   0.89620782   0.85773463   0.28215727     11.95843 
     577   -9934.1885    16.176209   -9871.0852    126.15383   0.89184518   0.87431091   0.27999618     12.00492 
     578   -9934.1142    16.750727   -9870.7421    130.63434   0.89564382   0.89357959   0.27774392    12.052794 
     579   -9934.0186    17.278409   -9870.0154    134.74959    0.9045634   0.91387641   0.27540668    12.106737 
     580   -9933.8064     17.05119   -9869.2919    132.97757   0.91178955   0.93192386   0.27299094    12.152979 
     581   -9933.5833    16.771011   -9867.9316    130.79253   0.92786126   0.94437324    0.2705026    12.201952 
     582    -9933.472    17.313438   -9865.6662    135.02277   0.95830507    0.9501206   0.26841923    12.247246 
     583   -9933.3988    18.164104   -9864.1064    141.65688   0.97931654   0.95122419   0.26853337    12.288681 
     584   -9933.2193    18.251175   -9865.1151    142.33592   0.96252332   0.95153405   0.26925651    12.330579 
     585    -9932.969      17.7562   -9868.1603    138.47575   0.91594825   0.95446395    0.2700819     12.37589 
     586   -9932.8025    17.776669   -9870.8008    138.63538   0.87627489    0.9616848   0.27083266    12.414862 
     587   -9932.7274    18.419334   -9871.5819    143.64734   0.86417389   0.97277265   0.27150626     12.45677 
     588   -9932.5907    18.624301   -9870.8844    145.24583   0.87210037   0.98515411   0.27210334    12.500137 
     589   -9932.3453    18.026539   -9869.0407    140.58405   0.89468912   0.99485719   0.27262451    12.541361 
     590   -9932.1323     17.62572   -9865.5629    137.45817   0.94083126    0.9986585   0.27307004    12.588466 
     591   -9932.0379    18.089759   -9860.9649    141.07708    1.0044815   0.99631675   0.27343751    12.637673 
     592   -9931.9436    18.621996   -9857.5929    145.22786    1.0508043    0.9908135   0.27372805    12.686499 
     593     -9931.73    18.359938   -9857.2438    143.18414    1.0527201   0.98640468   0.27394053    12.733038 
     594   -9931.4845    17.888551   -9858.9314    139.50792    1.0253988    0.9863454     0.274074    12.773151 
     595   -9931.3493    18.238119    -9860.309     142.2341    1.0040188   0.99180862   0.27412806    12.814208 
     596   -9931.2747    19.087957   -9860.4874    148.86175    1.0004435    1.0016607   0.27409767    12.940123 
     597   -9931.1034    19.286776   -9860.0212    150.41229    1.0046109    1.0126015   0.27398869    12.993805 
     598   -9930.8419    18.804945   -9858.8526    146.65462    1.0174319    1.0204013   0.27380173    13.037762 
     599     -9930.65    18.749882   -9856.3258     146.2252      1.05043    1.0223632   0.27353701    13.085029 
     600   -9930.5652    19.417639   -9853.2943    151.43286    1.0920766    1.0192119   0.27319417     13.12904 
     601   -9930.4365    19.756003   -9852.2147    154.07167     1.105516    1.0146167   0.27276679    13.171195 
     602   -9930.1871    19.181067   -9854.3109    149.58789    1.0723656    1.0128502   0.27225945    13.211365 
     603   -9929.9483    18.611653    -9858.033    145.14719    1.0163863    1.0166959   0.27167146    13.249957 
     604   -9929.8337    18.919752   -9861.2502    147.54997   0.96929694    1.0266275   0.27100269    13.288419 
     605   -9929.7432    19.462819   -9863.6631     151.7852   0.93391586    1.0406596   0.27025352    13.326946 
     606   -9929.5354    19.235466   -9865.9218    150.01214   0.89905651    1.0547494   0.26942228    13.365367 
     607   -9929.2721    18.649207   -9867.6806    145.44006   0.87047741    1.0645592   0.26851167    13.406591 
     608   -9929.1124    18.849557    -9868.365    147.00254   0.85854892    1.0681074   0.26752161    13.447947 
     609   -9929.0357    19.734724   -9869.2264    153.90571    0.8452908    1.0671524   0.26645152    13.489127 
     610   -9928.8759    20.106661   -9872.5292    156.80635   0.79635303    1.0660073   0.26530051    13.530691 
     611   -9928.6068    19.711983   -9878.4823    153.72836     0.708414     1.068943   0.26406897     13.57304 
     612   -9928.3889    19.648225    -9884.657    153.23113   0.61806646    1.0782589   0.26275585    13.611853 
     613   -9928.2907    20.425074   -9888.8454    159.28957   0.55748315    1.0935945   0.26136198    13.650679 
     614   -9928.1697    21.034109   -9890.9083    164.03926    0.5266186    1.1119039   0.25988895    13.689343 
     615   -9927.9188    20.653134   -9891.2218    161.06814   0.51864123     1.128353   0.25833877    13.729861 
     616   -9927.6528    20.049635   -9889.1466    156.36162   0.54421271    1.1386853   0.25671574    13.772537 
     617   -9927.5118    20.251848   -9884.5362    157.93862    0.6073768    1.1418768   0.25501903     13.81113 
     618   -9927.4189    20.783776   -9879.4382    162.08698   0.67811557    1.1408522   0.25324976    13.850493 
     619   -9927.2146    20.524737   -9876.3624    160.06681     0.718698    1.1406175   0.25222777    13.897718 
     620   -9926.9332     19.70809   -9875.2817    153.69801   0.72999492    1.1454713   0.25267105    13.938857 
     621   -9926.7459    19.582359   -9874.0224    152.71746   0.74514691    1.1572034   0.25305882    13.980746 
     622   -9926.6634    20.295419   -9871.3504    158.27842   0.78174269    1.1745376   0.25340088    14.023458 
     623   -9926.5158    20.655708   -9867.8716    161.08822   0.82882356    1.1934023   0.25369733    14.072151 
     624   -9926.2452    20.192439   -9863.9221    157.47531   0.88081878    1.2084681   0.25394724    14.124925 
     625   -9926.0058     19.95515    -9858.726    155.62476   0.95087192    1.2159815   0.25414915      14.1713 
     626   -9925.8956    20.666333   -9852.5185    161.17108    1.0370458    1.2161521   0.25428379    14.221172 
     627    -9925.786    21.424998   -9847.6756     167.0877    1.1039421    1.2130956   0.25436751    14.271446 
     628   -9925.5425    21.225969    -9846.202    165.53553     1.121326    1.2123559   0.25439887    14.321079 
     629    -9925.259    20.678649   -9847.1989    161.26713    1.1032303    1.2180578   0.25437603    14.364658 
     630   -9925.0968    20.947299   -9848.2789    163.36226    1.0856746    1.2313113    0.2542963    14.415428 
     631   -9925.0045    21.738674   -9848.5872    169.53397    1.0800134    1.2498608    0.2541386    14.464095 
     632   -9924.8085    21.819434    -9848.779     170.1638    1.0745315    1.2687833   0.25391556    14.510785 
     633   -9924.5119    21.177244   -9848.7176    165.15554    1.0712067    1.2826212   0.25362207    14.554582 
     634   -9924.2921    21.072539   -9847.4828    164.33897    1.0855529    1.2884642   0.25325338    14.602549 
     635    -9924.193    21.874161   -9845.7799     170.5906    1.1082196    1.2878617   0.25280582    14.653779 
     636   -9924.0474    22.421707    -9846.136    174.86076    1.1011288    1.2859574   0.25227559    14.704125 
     637   -9923.7665    22.031205   -9849.7806    171.81534    1.0456497    1.2885773   0.25500385    14.747462 
     638   -9923.4941    21.677985    -9854.861    169.06067   0.96999727    1.2994493    0.2586455    14.788066 
     639   -9923.3569    22.298836    -9858.817    173.90252   0.91214833    1.3188174   0.26224517    14.834092 
     640   -9923.2464    23.148039   -9861.0698    180.52523   0.87874655    1.3433068   0.26580295    14.878133 
     641   -9923.0027    23.066927   -9862.0789    179.89266   0.86104146    1.3671057   0.26932253    14.917558 
     642   -9922.6943    22.479793   -9861.2414    175.31376      0.86852    1.3847259   0.27279909    14.956446 
     643   -9922.4989    22.661219   -9857.8087    176.72865   0.91427301    1.3942235   0.27623166    14.998212 
     644   -9922.3966    23.532158   -9853.2656    183.52087   0.97703429    1.3985304    0.2796191    15.039017 
     645   -9922.2038    23.804838   -9850.4757    185.64742    1.0137399    1.4038376   0.28296011    15.089256 
     646    -9921.891    23.236636   -9850.2488    181.21617    1.0125263    1.4163061   0.28625517    15.130943 
     647   -9921.6365    23.078596   -9850.5479    179.98366    1.0047011    1.4391992   0.28950113    15.173053 
     648    -9921.516    23.927239   -9849.4807      186.602    1.0180809    1.4715025   0.29269687    15.213203 
     649   -9921.3713    24.687905   -9847.2225    192.53422    1.0479515    1.5080704   0.29584142     15.25402 
     650   -9921.0831    24.456182   -9844.2715    190.72708    1.0855854    1.5416703   0.29893408    15.292672 
     651   -9920.7771    24.068563   -9839.8325    187.70414    1.1439973     1.566644   0.30197167    15.386023 
     652   -9920.6068    24.630059   -9833.5998    192.08309    1.2296785    1.5821929   0.30495716    15.431253 
     653   -9920.4878    25.565253   -9827.7586    199.37641    1.3105501    1.5930321   0.30789115    15.472555 
     654    -9920.242    25.579736   -9825.0766    199.48937    1.3449802    1.6068933    0.3107746      15.5139 
     655   -9919.9086    24.884424   -9825.5454    194.06682    1.3336432    1.6305756    0.3136087     15.55857 
     656   -9919.6771     24.83225   -9826.7326    193.65993    1.3135924    1.6666575   0.31639011    15.612482 
     657   -9919.5601    25.585079   -9827.1395    199.53103    1.3061879     1.712068   0.31912487    15.654185 
     658   -9919.3714    25.848783   -9827.2294    201.58759    1.3022508    1.7590967   0.32181403    15.695801 
     659   -9919.0486    25.136536   -9827.1751    196.03297    1.2984556    1.7988991   0.32445838    15.737161 
     660   -9918.7626    24.636602   -9825.9999    192.13412    1.3110231    1.8261155    0.3270584    15.778485 
     661   -9918.6213    25.169336   -9823.9336    196.28877    1.3382303     1.841955   0.32961223    15.819084 
     662    -9918.482    25.769286   -9823.6073    200.96761    1.3408724    1.8537521   0.33212178    15.857811 
     663   -9918.1979    25.364846   -9827.2183     197.8135     1.285823    1.8712457    0.3345864    15.896757 
     664   -9917.8729    24.656003   -9833.6839    192.28542    1.1898502    1.9016616    0.3370049    15.935463 
     665   -9917.6828    24.926504   -9840.1879    194.39499     1.095242    1.9460172   0.33937551    15.974629 
     666   -9917.5703    25.831218   -9845.5303     201.4506    1.0181469    1.9982924   0.34169711    16.013151 
     667   -9917.3422    25.987459   -9850.1191    202.66909   0.95007034    2.0480241   0.34396576     16.05176 
     668   -9917.0032    25.359352   -9853.5277    197.77065   0.89710513    2.0854403   0.34617858    16.097108 
     669   -9916.7474     25.31084   -9854.5786    197.39232   0.87863735    2.1065416   0.34833267    16.135685 
     670   -9916.6235    26.231063   -9854.0437    204.56888   0.88444561    2.1153262   0.35042515    16.174193 
     671   -9916.4473    26.844193   -9854.8491    209.35052   0.87057256    2.1218694    0.3524554     16.21281 
     672   -9916.1234    26.399963   -9858.6085    205.88609   0.81286349    2.1372244    0.3544181    16.251886 
     673   -9915.8084    25.964442   -9863.5947    202.48958    0.7379404    2.1678021   0.35631044    16.292752 
     674   -9915.6421    26.567977   -9867.2526    207.19639   0.68389205    2.2119502   0.35812965    16.403122 
     675   -9915.5047    27.415354   -9869.0961    213.80485   0.65589812    2.2605027   0.35987309    16.442044 
     676   -9915.2238    27.266451   -9869.7178     212.6436   0.64313937    2.3011747   0.36153905    16.486639 
     677   -9914.8727     26.60281    -9868.542    207.46804   0.65479606    2.3246758   0.36312476    16.525234 
     678   -9914.6449    26.824158   -9864.8697    209.19427   0.70347804    2.3294563   0.36462898    16.570295 
     679   -9914.5192    27.839797   -9860.4557    217.11496   0.76408554     2.322585   0.36605111    16.616434 
     680   -9914.2955    28.218339   -9858.5411     220.0671   0.78798137    2.3162992   0.36739104    16.657831 
     681   -9913.9401    27.650601   -9860.0136    215.63947   0.76214791    2.3219486    0.3686487    16.698768 
     682   -9913.6457    27.471933   -9862.4831    214.24609   0.72308526    2.3443784    0.3698247    16.737563 
     683   -9913.4979    28.333806   -9863.5666     220.9676   0.70568319    2.3795567   0.37091937     16.78528 
     684    -9913.326    29.052574    -9863.112    226.57308   0.70967823     2.416632   0.37193305    16.829636 
     685   -9912.9978    28.639609   -9861.4154    223.35248   0.72901926     2.443376    0.3728661    16.883009 
     686   -9912.6498    28.007141   -9857.5092    218.42003   0.77930717     2.452298   0.37371853    16.924764 
     687   -9912.4512    28.388075   -9851.0764    221.39083   0.86741543    2.4444136   0.37449172    16.963765 
     688   -9912.3119    29.197993   -9844.5913    227.70716   0.95710088    2.4288094   0.37518645    17.002346 
     689   -9912.0373    29.050808   -9841.2085     226.5593    1.0010288     2.418262   0.37580338    17.041171 
     690   -9911.6673    28.183489   -9841.0195    219.79532   0.99847202    2.4230912   0.37634269    17.086445 
     691   -9911.4077    28.082515   -9841.3577    219.00786   0.99002348    2.4462455   0.37680209    17.125094 
     692   -9911.2756    28.934103    -9840.462    225.64915    1.0008161    2.4819443    0.3771821    17.166499 
     693   -9911.0671    29.304068   -9838.6684    228.53441    1.0232174     2.518483    0.3774809    17.205026 
     694   -9910.7097    28.611557   -9836.0217    223.13371    1.0555723    2.5438589   0.37769643    17.243484 
     695   -9910.3885    28.126542   -9831.3551    219.35121     1.116986    2.5515569   0.37782676     17.28289 
     696   -9910.2245    28.764153   -9824.8894    224.32376    1.2060494    2.5437061   0.37786679    17.323896 
     697    -9910.066    29.488044   -9819.5976    229.96919    1.2785972    2.5300343    0.3778188     17.36778 
     698     -9909.75    29.098082   -9818.1253    226.92798      1.29494    2.5231211   0.37768198    17.407679 
     699   -9909.3849    28.312435   -9819.5672    220.80094    1.2694027    2.5322162   0.37745556    17.446132 
     700   -9909.1648    28.535315   -9821.0364    222.53912    1.2455273    2.5586234   0.37713865    17.484692 
     701   -9909.0317     29.43672   -9821.3119    229.56893    1.2397516    2.5949128   0.37672562    17.523541 
     702   -9908.7766    29.530146   -9820.9384    230.29753    1.2414254    2.6283998    0.3762203    17.566189 
     703   -9908.3994    28.760145   -9819.6086     224.2925    1.2548873    2.6473107   0.37562256    17.607409 
     704   -9908.1108    28.615721   -9816.1968    223.16618     1.299029    2.6465918   0.37493328    17.649077 
     705   -9907.9681    29.558137   -9811.6518    230.51583     1.361247    2.6304636   0.37415447    17.690546 
     706   -9907.7739    30.206155   -9809.2671    235.56954     1.392205    2.6103937   0.37328648     17.73273 
     707   -9907.4186    29.695521   -9810.8839    231.58724    1.3643333    2.5994675    0.3723354    17.779227 
     708   -9907.0684    29.145477   -9814.6016     227.2976    1.3068426    2.6059389   0.37130479     17.82659 
     709    -9906.879    29.697046   -9817.4586    231.59914    1.2637877    2.6291407   0.37019793    17.868131 
     710   -9906.7268    30.518044    -9818.705    238.00188    1.2440202    2.6597772   0.36901776    17.912636 
     711   -9906.4206    30.234705   -9818.8634     235.7922    1.2374539     2.684479   0.36776623    17.953943 
     712   -9906.0344    29.321315   -9817.2935    228.66892    1.2541835    2.6924229   0.36644728    17.995664 
     713   -9905.7796    29.315799   -9813.2443     228.6259    1.3078092    2.6807104   0.36506453    18.054656 
     714   -9905.6405    30.200779   -9808.6418    235.52761    1.3708913    2.6558451   0.36362211    18.093526 
     715   -9905.4013    30.473343   -9807.1122    237.65327    1.3891292    2.6305362   0.36212442    18.132117 
     716   -9905.0188    29.788112   -9809.7939    232.30934    1.3458221    2.6174152   0.36057181    18.172591 
     717   -9904.6975    29.593014   -9814.1565    230.78782    1.2796234    2.6227956    0.3589713    18.214057 
     718   -9904.5356    30.644637   -9817.5069    238.98915    1.2299838    2.6435258   0.35732569    18.259207 
     719   -9904.3522     31.68547   -9819.4987    247.10631    1.1992422    2.6685047    0.3556373    18.300786 
     720   -9903.9989    31.582039   -9820.3346    246.29969     1.182435    2.6841136   0.35390853    18.346712 
     721   -9903.6149    31.244088   -9818.8761     243.6641    1.1976202    2.6809076   0.35233969    18.386341 
     722   -9903.3873    32.002212   -9814.6296     249.5765    1.2544203     2.658262   0.35246648    18.433599 
     723   -9903.2263    33.253876   -9810.1189    259.33789    1.3158963    2.6246679   0.35245287    18.473672 
     724   -9902.9208    33.459234   -9808.7209    260.93942    1.3313359    2.5935276   0.35230283    18.519436 
     725   -9902.5052    32.781162   -9810.5731    255.65131    1.2992842    2.5765649   0.35201937    18.560469 
     726   -9902.2009     32.80104   -9812.7687    255.80634    1.2639528    2.5781301    0.3516108    18.669391 
     727   -9902.0349    33.785908   -9813.3311    263.48706    1.2536592    2.5931467   0.35107233    18.710451 
     728   -9901.7917    34.242061   -9812.6841    267.04447     1.259366     2.609677   0.35040463    18.756301 
     729   -9901.3856    33.541433   -9811.1157    261.58046    1.2757925    2.6147838   0.34960767    18.796109 
     730   -9901.0136    33.073733   -9807.6469      257.933    1.3195602    2.6008711   0.34868079    18.841659 
     731   -9900.8142    33.898089   -9802.6738    264.36192     1.387027    2.5694263    0.3476241    18.883089 
     732    -9900.628    34.931356   -9799.4745    272.42009    1.4296112    2.5303155   0.34643422    18.923144 
     733   -9900.2715    34.812302   -9800.9116    271.49162    1.4042627    2.4970423   0.34822488    18.961728 
     734   -9899.8536    34.229759   -9805.8816    266.94853    1.3281149    2.4802812   0.35134665    19.000623 
     735   -9899.5878    34.692401   -9810.9313    270.55654    1.2529911    2.4828316   0.35440552    19.039534 
     736    -9899.421     35.86926   -9814.3365    279.73454    1.2025067    2.4983407   0.35739959    19.084264 
     737   -9899.1239    36.116108   -9816.4236    281.65964    1.1688098    2.5143408   0.36032547    19.126824 
     738    -9898.689    35.301135   -9816.7836     275.3039    1.1575765    2.5182465   0.36318184    19.170444 
     739   -9898.3444    35.041187   -9814.2063    273.27663    1.1891323    2.5034612   0.36596708    19.208902 
     740   -9898.1619    35.923007   -9809.8019    280.15371       1.2488    2.4726304   0.36867857    19.247375 
     741   -9897.9315    36.512474    -9807.372     284.7508    1.2798861    2.4363856   0.37130997      19.2857 
     742   -9897.5263    35.869477   -9809.2464    279.73624    1.2476671    2.4081451   0.37385927     19.33041 
     743   -9897.1214    35.222934      -9813.6    274.69403    1.1804162    2.3975668   0.37632214    19.368974 
     744   -9896.8934    35.887293     -9817.24    279.87518    1.1257489    2.4057766   0.37869559    19.407552 
     745   -9896.7136    37.001758   -9819.2471    288.56659    1.0948404    2.4246856   0.38097857    19.446167 
     746   -9896.3658    37.010632   -9820.0735     288.6358    1.0782454    2.4407919   0.38316668    19.484719 
     747   -9895.9224    36.341238   -9818.8617    283.41538    1.0891061    2.4417046    0.3852673    19.590712 
     748   -9895.6169    36.654029    -9814.531    285.85474    1.1459944    2.4222744   0.38728256    19.632122 
     749   -9895.4422    37.946283    -9808.965    295.93268    1.2221899     2.387197   0.38921404    19.673506 
     750   -9895.1608    38.525109   -9806.1101    300.44679    1.2585619    2.3487604   0.39106265    19.720429 
     751   -9894.7151    37.917394   -9807.3722    295.70738    1.2344262    2.3208396   0.39282238    19.762496 
     752   -9894.3309    37.679387   -9810.1456    293.85123    1.1897985    2.3120894   0.39450203    19.805062 
     753   -9894.1251    38.690819   -9811.5387    301.73912    1.1672017    2.3217023   0.39610507    19.847702 
     754    -9893.904    39.598517   -9811.2354      308.818    1.1683632     2.339756   0.39763697     19.89012 
     755   -9893.4969    39.123748   -9809.5658    305.11541    1.1862054    2.3520414    0.3991048    19.931552 
     756    -9893.052    38.262415   -9805.3424    298.39811    1.2396078    2.3470539   0.40051094    19.973577 
     757    -9892.784    38.559441   -9798.0163    300.71454    1.3393605      2.32171   0.40186799    20.015296 
     758   -9892.6007    39.433908   -9790.4044    307.53426    1.4443495    2.2829346   0.40318206    20.057077 
     759   -9892.2643    39.190941   -9786.4137    305.63943    1.4959967    2.2443027   0.40445816    20.102444 
     760   -9891.8032    37.983984   -9786.4373     296.2267    1.4891466    2.2194104   0.40570085    20.141075 
     761   -9891.4653    37.595255   -9787.3744    293.19511    1.4711256    2.2152423   0.40691308    20.179981 
     762   -9891.2883    38.395277   -9786.9595    299.43427    1.4744883    2.2287796   0.40810268    20.218307 
     763   -9891.0332     38.73889   -9785.4859      302.114    1.4917103    2.2484443   0.40927635    20.256758 
     764    -9890.596     37.85942   -9783.0803    295.25526    1.5195284    2.2597361   0.41044083    20.295009 
     765   -9890.1887    37.256251   -9778.4047    290.55131    1.5798528    2.2523329   0.41160185    20.333608 
     766   -9889.9724    38.148769    -9771.662    297.51181    1.6720922    2.2251753    0.4127609    20.372125 
     767   -9889.7763    39.382362    -9766.419    307.13227    1.7434196    2.1870291   0.41392215    20.410718 
     768   -9889.3911    39.419736   -9766.0416    307.42374    1.7433088     2.152176   0.41508575    20.449199 
     769   -9888.9308    38.978051   -9769.5979    303.97916    1.6865424    2.1334166   0.41625099    20.487613 
     770   -9888.6354    39.738472   -9773.4568    309.90947    1.6278289     2.135795   0.41741711    20.526216 
     771   -9888.4529    41.355325    -9775.766    322.51887     1.592614    2.1540939   0.41857911    20.566025 
     772   -9888.1275    41.959303   -9776.8931    327.22912    1.5720863    2.1753522   0.41974096    20.612309 
     773   -9887.6426    41.319391   -9776.3296    322.23863    1.5731966    2.1851587   0.42090153    20.655496 
     774   -9887.2518    41.197162   -9772.5971     321.2854    1.6204242    2.1747408   0.42205828    20.697796 
     775   -9887.0422    42.271264   -9766.7765    329.66202    1.6997265    2.1453098   0.42320675    20.736461 
     776   -9886.7833    42.960068   -9763.0744    335.03382    1.7483887    2.1074722   0.42433652    20.774972 
     777   -9886.3296    42.185092   -9764.2641       328.99    1.7251627    2.0760292   0.42544443    20.813326 
     778   -9885.8737    41.284705    -9768.584    321.96813    1.6576664    2.0626936   0.42652298    20.851754 
     779   -9885.6141    41.748832   -9772.6982    325.58772    1.5958503    2.0703985   0.42756514    20.890521 
     780   -9885.4124    42.690238   -9775.6695    332.92949    1.5510077    2.0919093   0.42856465    20.929127 
     781   -9885.0311    42.429691   -9777.9803    330.89755    1.5129582    2.1133822   0.42951417     20.96745 
     782   -9884.5468     41.43426   -9778.5797    323.13446    1.4976418    2.1212369    0.4304093    21.005768 
     783   -9884.2153    41.513818   -9776.0673    323.75491    1.5284655    2.1088836   0.43124379     21.04447 
     784   -9884.0276    42.658154   -9772.2048    332.67928    1.5804008    2.0800623   0.43201062     21.08913 
     785   -9883.7273    43.003269   -9771.0357    335.37073    1.5926808    2.0470244    0.4327024    21.127688 
     786   -9883.2486    42.011539   -9773.9044     327.6365    1.5453707     2.024474   0.43331117    21.223319 
     787   -9882.8354    41.370713   -9777.9245    322.63887    1.4827152    2.0223962   0.43393761    21.261774 
     788    -9882.616    42.080557   -9780.0332    328.17476    1.4498119    2.0411444   0.43756363    21.300225 
     789   -9882.3835    42.753954   -9780.0877     333.4264    1.4457557     2.071253   0.44101347    21.338837 
     790   -9881.9544     42.07011   -9778.7464    328.09328    1.4586484        2.098   0.44428352    21.377329 
     791   -9881.4849    41.129566   -9775.0352    320.75824    1.5044627    2.1086044   0.44739819    21.421548 
     792   -9881.2029    41.613863   -9768.5416    324.53514    1.5922533    2.0985894   0.45032657    21.460287 
     793   -9881.0115    42.922729   -9762.3012    334.74262    1.6777427    2.0740067   0.45306586    21.506692 
     794   -9880.6555    43.227995    -9760.403    337.12331    1.6995395    2.0484389   0.45561356    21.548043 
     795   -9880.1619    42.627837   -9763.1267    332.44284    1.6540685    2.0362382   0.45796731     21.58827 
     796   -9879.7924    42.946293   -9766.9797    334.92639    1.5943921    2.0453902   0.46013568    21.626755 
     797   -9879.5898     44.51422   -9769.3317    347.15423    1.5582884     2.073506    0.4621051    21.666699 
     798   -9879.3021    45.506241   -9770.3225    354.89073    1.5402177    2.1088603    0.4638727    21.710719 
     799   -9878.8163    45.008757   -9769.9708    351.01099    1.5383226    2.1360549   0.46543543    21.749176 
     800   -9878.3556    44.538639   -9766.7722    347.34466    1.5770188    2.1435898    0.4667903    21.789619 
     801   -9878.0945    45.390308   -9760.8827     353.9866    1.6565661    2.1295885   0.46793928    21.830611 
     802   -9877.8583    46.398392   -9756.1447    361.84837    1.7201891    2.1027548   0.46887564     21.88421 
     803   -9877.4269    45.990085   -9756.4002    358.66409     1.710482    2.0780594   0.46959793    21.926281 
     804   -9876.9174    44.977252   -9761.0975    350.76529    1.6368932    2.0693301   0.47010537    21.980211 
     805   -9876.5844    45.238551   -9766.8135    352.80308    1.5514029    2.0824664   0.47039773    22.019737 
     806   -9876.3788    46.543947   -9771.8784    362.98351    1.4769148    2.1125985   0.47049739     22.07014 
     807   -9876.0325    46.997076   -9776.8039    366.51734    1.4024062    2.1465094   0.47038278    22.109011 
     808   -9875.5199     46.33029   -9780.9772    361.31726    1.3361808    2.1691613   0.47005497    22.147507 
     809   -9875.1028    46.343441   -9782.4567    361.41982    1.3093755    2.1711524   0.46951564    22.247503 
     810   -9874.8761    47.722334   -9781.7215    372.17343    1.3165622    2.1534257   0.46876721    22.286434 
     811      -9874.6    48.761468   -9782.4849    380.27735     1.301872    2.1268581   0.46785336    22.328105 
     812   -9874.1163    48.223994   -9787.1128    376.08574    1.2296278    2.1069492    0.4667372     22.37575 
     813   -9873.6216    47.423211   -9793.4091    369.84066    1.1336506    2.1063056   0.46542284    22.416726 
     814    -9873.329    47.919756   -9797.6584    373.71307    1.0694605    2.1285979    0.4639145    22.455391 
     815   -9873.1027    48.822266   -9798.8606     380.7515    1.0492707    2.1668128   0.46221627    22.494089 
     816   -9872.6906    48.367719   -9797.7532    377.20661    1.0590965    2.2065853   0.46036091    22.534539 
     817   -9872.1655    47.041026   -9793.6135    366.86009    1.1101816    2.2331011   0.45832285    22.581153 
     818   -9871.7975    46.829431   -9785.3127    365.20992    1.2222983     2.238329   0.45610541     22.62152 
     819   -9871.5891    47.872227   -9774.9816    373.34241    1.3653627    2.2249833   0.45371182    22.660401 
     820   -9871.2706    48.283304   -9767.2057    376.54828    1.4707586    2.2051879   0.45114521    22.700469 
     821   -9870.7642    47.444478   -9763.8315     370.0065    1.5112899    2.1944872   0.44840633    22.742094 
     822   -9870.3186    47.068123   -9762.1539    367.07142    1.5287011    2.2041557   0.44550032    22.783512 
     823    -9870.075    48.206064   -9759.0611     375.9459    1.5689687    2.2355883   0.44242944    22.825122 
     824   -9869.8225    49.386656   -9754.3684    385.15302    1.6317243    2.2794396   0.43919542    22.864806 
     825   -9869.3632    49.117314   -9748.6914     383.0525    1.7054648    2.3200279   0.43579964    22.905416 
     826   -9868.8504    48.440136   -9740.8494    377.77137    1.8090498    2.3429778   0.43220838    22.947911 
     827   -9868.5299    49.096057   -9730.1804    382.88672    1.9553054    2.3423369   0.42845867    22.988536 
     828   -9868.3099     50.47245   -9719.7413    393.62083    2.0997346    2.3235718   0.42455258    23.040158 
     829   -9867.9197    50.616942   -9713.9988    394.74769    2.1753785    2.3008474   0.42049297    23.087392 
     830   -9867.3816    49.598058   -9713.6654    386.80169    2.1724845    2.2899681   0.41628351    23.127615 
     831   -9866.9675    49.422664   -9715.4766    385.43384    2.1410349    2.3005406   0.41187871    23.167343 
     832   -9866.7381    50.611407   -9716.9957    394.70452    2.1163239    2.3312206   0.40733441    23.207953 
     833   -9866.4303    51.365717   -9718.6073    400.58718    2.0891959    2.3703869   0.40265611    23.246572 
     834   -9865.9163    50.744104   -9720.4475    395.73939    2.0559229    2.4018698   0.39784997      23.2862 
     835    -9865.428    50.335987   -9720.7942     392.5566    2.0441235    2.4129839   0.39292314     23.32555 
     836   -9865.1511    51.508828   -9719.3768    401.70326    2.0602407    2.4008808   0.38785125    23.371989 
     837   -9864.9042    52.982462   -9719.6672    413.19573    2.0526482    2.3739625   0.38267815    23.424152 
     838   -9864.4488    52.969266   -9725.1043    413.09282    1.9693691     2.347681   0.37741551    23.464514 
     839   -9863.9047    52.182532   -9734.5014     406.9573     1.828868    2.3368535    0.3720762    23.505062 
     840    -9863.543    52.512284   -9743.6583    409.52894    1.6943412    2.3484213   0.36667377    23.551585 
     841   -9863.3152    53.679328   -9750.3573     418.6304    1.5964441    2.3781575   0.36160449    23.597716 
     842   -9862.9378    53.697841   -9754.9601    418.77477     1.526058    2.4127689    0.3581562    23.640903 
     843   -9862.3848    52.369656   -9757.0026    408.41662    1.4893767    2.4364566   0.35895535    23.689291 
     844   -9861.9364    51.735491   -9754.9767    403.47094    1.5116722    2.4387633   0.36211965    23.735632 
     845   -9861.6956    52.661873   -9750.1767    410.69555    1.5761064      2.41984   0.36530109    23.777644 
     846    -9861.409    53.443552   -9747.3594    416.79164    1.6118741    2.3904072   0.36850834    23.829029 
     847   -9860.9075    52.814062   -9749.6612    411.88242     1.572254      2.36636   0.37172316     23.87031 
     848   -9860.3953    52.148548   -9755.0341    406.69226    1.4890792    2.3609464   0.37494141    23.911659 
     849   -9860.0953    53.048115   -9759.4618    413.70774    1.4222625    2.3783042   0.37815955    23.950807 
     850   -9859.8607     54.51652   -9761.5302    425.15943    1.3897143    2.4114468   0.38137446      23.9896 
     851   -9859.4266    54.646685   -9761.5847    426.17455    1.3828085    2.4456044   0.38458278    24.097474 
     852   -9858.8707    53.895414   -9758.5257     420.3156    1.4181862    2.4654079   0.38808464    24.138002 
     853   -9858.4781     54.26311    -9751.062    423.18315    1.5181226    2.4625889   0.39360022    24.180517 
     854   -9858.2478    55.780159   -9741.5788     435.0142    1.6488935    2.4401889   0.39899825    24.218943 
     855   -9857.8943    56.398953   -9735.1516    439.84001    1.7347334    2.4110889   0.40427569    24.257744 
     856   -9857.3393    55.518467   -9733.9097    432.97334    1.7444414    2.3915891   0.40943009    24.296248 
     857   -9856.8518    55.050877   -9735.0798    429.32673    1.7210148     2.393359   0.41445537    24.337499 
     858   -9856.5832    56.173862   -9735.3542    438.08458    1.7133393    2.4176389   0.41934741    24.384172 
     859   -9856.3069     57.34567    -9734.384     447.2232    1.7231478    2.4545091   0.42410243    24.430186 
     860   -9855.8122    56.996106   -9732.5381    444.49704    1.7422451    2.4876109   0.42871673    24.471168 
     861   -9855.2638    56.239543   -9728.2609    438.59681    1.7949432    2.5021591   0.43319524    24.515375 
     862   -9854.9211    56.909824   -9720.6382    443.82415    1.8978329    2.4923873   0.43752385    24.576516 
     863   -9854.6843    58.346319   -9712.7836    455.02699    2.0054959    2.4644508   0.44169703    24.619706 
     864   -9854.2694    58.493779   -9709.3137    456.17698    2.0486722    2.4334094   0.44570882    24.659027 
     865   -9853.6998    57.429799   -9710.8382    447.87929    2.0190756    2.4157486   0.44955351    24.698127 
     866   -9853.2657    57.223493   -9713.7499    446.27037    1.9717902    2.4212089   0.45323627     24.74419 
     867   -9853.0249    58.353117   -9715.2451       455.08    1.9472537     2.448003   0.45674393    24.791392 
     868   -9852.7001    58.889806   -9715.4359    459.26549    1.9399676    2.4836053   0.46007515    24.836677 
     869   -9852.1597    57.861647   -9714.2476    451.24716    1.9491241    2.5108984   0.46322993    24.879444 
     870   -9851.6465    56.984031   -9709.9089    444.40288    2.0031909    2.5166593   0.46620901     24.92398 
     871   -9851.3572    57.750632   -9702.5217    450.38138    2.1035058    2.4981993   0.46902023    24.964667 
     872   -9851.1038    58.895693   -9696.3991     459.3114    2.1864567    2.4648097   0.47165694    25.006254 
     873   -9850.6347    58.618731   -9695.9443    457.15145    2.1862524    2.4332377   0.47411955    25.114322 
     874   -9850.0725    57.731421   -9700.6297    450.23156    2.1120877    2.4194914   0.47640913    25.152784 
     875   -9849.7027    58.269653   -9706.5168    454.42909    2.0236598    2.4310203   0.47852829    25.194725 
     876   -9849.4771    59.951877   -9711.3965    467.54829    1.9515061    2.4630613   0.48048825    25.233212 
     877   -9849.0964    60.614408   -9715.4579    472.71519    1.8887243    2.5008726   0.48228931     25.27163 
     878   -9848.5259    59.894181   -9717.7465    467.09834    1.8483184    2.5269042   0.48393908     25.31028 
     879    -9848.057    59.783493    -9716.022    466.23511    1.8660626    2.5294302   0.48544498    25.354727 
     880   -9847.8025    61.091226    -9711.007    476.43376    1.9333429    2.5083839   0.48681319    25.393186 
     881   -9847.4993    61.959031   -9707.3285    483.20153     1.981047    2.4754044   0.48805423     25.43176 
     882   -9846.9658    61.036268   -9708.3233    476.00516    1.9594463    2.4480164   0.48916572    25.470096 
     883   -9846.4186    59.839679    -9712.229    466.67329    1.8965144    2.4408551   0.49015129     25.50848 
     884   -9846.1006    60.191544   -9715.4059    469.41739    1.8471206    2.4583055   0.49101574    25.547032 
     885   -9845.8619    61.158175   -9716.9645    476.95588    1.8217193    2.4922106   0.49176544    25.598727 
     886   -9845.4158    60.795782   -9717.6408    474.12968     1.805856    2.5258055   0.49240645    25.637247 
     887   -9844.8431    59.630935   -9716.2879    465.04535    1.8168824    2.5420169   0.49294712    25.675672 
     888   -9844.4462    59.814683   -9711.1677    466.47835    1.8836367    2.5319291   0.49339395    25.722335 
     889   -9844.2248    61.380105   -9704.2299    478.68665    1.9785605    2.4992233   0.49375146    25.763513 
     890   -9843.8771    62.109592   -9700.2841    484.37572    2.0294128     2.458286   0.49402221    25.804738 
     891   -9843.3135    61.288472   -9701.1794    477.97203    2.0087943    2.4269871   0.49419719    25.846023 
[...]
    1832   -9735.4083    110.98548   -9515.4733     865.5454    3.1083616    2.3495154   0.88649416    39.218356 
    1833    -9735.348    110.82179    -9519.732    864.26881    3.0473206    2.3683792   0.88779904    39.258411 
    1834   -9735.2578    110.43436   -9525.9432    861.24736    2.9582615    2.4062846   0.88895115    39.309234 
    1835   -9735.1751    110.14647   -9531.2418    859.00219    2.8822073    2.4397081   0.88995621    39.423353 
    1836   -9735.1146    110.15742   -9533.3588    859.08761     2.851432    2.4470688   0.89080975    39.477033 
    1837    -9735.046    110.29256   -9531.8319    860.14149    2.8720436    2.4194321   0.89153456    39.526181 
    1838   -9734.9493    110.36962   -9527.8981    860.74251    2.9262743    2.3649244   0.89214288    39.576047 
    1839     -9734.85     110.4535    -9523.786    861.39665    2.9829864    2.3047071   0.89264771     39.62382 
    1840   -9734.7655    110.59398   -9521.9808    862.49222    3.0073059    2.2624692   0.89306156    39.665638 
    1841   -9734.6644    110.67547   -9524.2037    863.12769      2.97446    2.2527063   0.89339156    39.711957 
    1842   -9734.5337    110.69871   -9530.3562    863.30898    2.8856588    2.2736387   0.89365044    39.757671 
    1843   -9734.4001    110.97001    -9538.387    865.42477    2.7702707    2.3080393   0.89384537    39.800632 
    1844   -9734.2899    111.75895   -9545.5479    871.57751    2.6675067    2.3316894   0.89398259    39.842261 
    1845   -9734.1879    112.95522   -9549.9787    880.90689    2.6034459    2.3253332   0.89406823    39.895341 
    1846   -9734.0651    114.26369   -9551.3818     891.1113    2.5818797    2.2842147   0.89412092    39.942754 
    1847   -9733.9293    115.55576   -9550.7802    901.18778    2.5884627    2.2203296   0.89413479    39.987588 
    1848   -9733.8035     116.8264   -9549.9519    911.09718    2.5983918    2.1561288   0.89411574     40.09044 
    1849   -9733.6851    117.93205   -9550.6334    919.71976    2.5870864    2.1131495   0.89406858     40.13094 
    1850    -9733.556    118.63075   -9553.4394    925.16876    2.5456038    2.1015442   0.89399646    40.170853 
    1851   -9733.4118    118.85274   -9557.1055    926.90005    2.4917521    2.1156264   0.89393168    40.210882 
    1852   -9733.2705    118.73343   -9558.9778    925.96955    2.4632951    2.1370773   0.89384297    40.251202 
    1853    -9733.138    118.41432   -9556.5072    923.48088    2.4963389    2.1441374   0.89372887     40.28977 
    1854   -9733.0043    117.94504   -9548.7363    919.82114    2.6042765    2.1226478   0.89358712    40.328101 
    1855   -9732.8681    117.39419   -9536.7806    915.52519    2.7713225    2.0733692   0.89341481    40.366563 
    1856   -9732.7342    116.92307   -9523.2541    911.85102    2.9606006    2.0114557   0.89324573    40.405982 
    1857   -9732.6179    116.60516     -9511.26    909.37171    3.1284704    1.9583098   0.89303874    40.450154 
    1858    -9732.507     116.3094   -9503.1167    907.06522    3.2419947    1.9307681   0.89278947    40.492943 
    1859   -9732.3831    115.87297   -9499.3336    903.66162    3.2937107    1.9334097   0.89249337     40.53534 
    1860   -9732.2519    115.34804   -9498.4202    899.56779    3.3047647    1.9569794   0.89214603    40.636327 
    1861   -9732.1237    114.97996   -9497.7912    896.69726    3.3118431    1.9828512   0.89178301    40.678526 
    1862   -9732.0087     114.9157   -9495.3083    896.19612    3.3453072    1.9920482    0.8913622    40.720779 
    1863   -9731.8895    115.12009    -9490.285    897.79008    3.4146188    1.9752235   0.89088143    40.762459 
    1864   -9731.7609    115.55834   -9483.6158    901.20787    3.5070574    1.9377957   0.89033918    40.809321 
    1865   -9731.6447    116.25271   -9477.3318    906.62309    3.5942275    1.8969512   0.88973424    40.858096 
    1866   -9731.5374    117.10053   -9473.8365      913.235    3.6421101     1.872491   0.88909868    40.897595 
    1867   -9731.4192    117.85959   -9474.7579    919.15468     3.627417    1.8771943   0.88839805    40.936856 
    1868   -9731.2832    118.45973   -9479.7738    923.83507    3.5546056    1.9114168   0.88763035      40.9771 
    1869   -9731.1566    119.08518   -9486.5779    928.71272    3.4566526    1.9629862   0.88679302    41.018654 
    1870   -9731.0581     119.8349   -9492.1901    934.55959    3.3759435    2.0124442   0.88588312    41.062065 
    1871   -9730.9585    120.53665   -9494.4489    940.03239    3.3426118    2.0424632   0.88491433      41.1047 
    1872   -9730.8412    121.02581   -9492.7146    943.84719    3.3654655    2.0469994   0.88386638    41.152178 
    1873   -9730.7292    121.38788   -9487.7961    946.67085    3.4333966    2.0347336   0.88273539    41.255529 
    1874   -9730.6439    121.69836   -9481.6603     949.0922    3.5189077    2.0245626   0.88151703    41.298029 
    1875   -9730.5706    121.75463   -9476.6498    949.53102     3.588686    2.0358885   0.88020655    41.338903 
    1876   -9730.4805    121.29171   -9474.0803    945.92091    3.6237264    2.0788412   0.87880513     41.38292 
    1877   -9730.3788    120.33373   -9473.2605    938.44981    3.6338759      2.14864    0.8773022    41.430505 
    1878   -9730.2921    119.14648   -9471.8679    929.19079    3.6523324    2.2266153   0.87569433    41.479491 
    1879   -9730.2237    117.89046   -9467.5032    919.39544    3.7130519     2.288379   0.87397967    41.521486 
    1880   -9730.1473    116.55936   -9459.1007    909.01456    3.8307261    2.3157853   0.87215815    41.575359 
    1881   -9730.0527    115.28183    -9447.436    899.05146    3.9942482    2.3063346   0.87024227    41.623093 
    1882   -9729.9654    114.40971   -9434.9414    892.25001    4.1695999    2.2746727   0.86822306    41.664776 
    1883    -9729.907    114.17245   -9425.0223    890.39967    4.3089637    2.2451839    0.8661031    41.705501 
    1884     -9729.86    114.40731   -9420.7138    892.23131    4.3691913    2.2396093   0.86388487    41.752402 
    1885   -9729.7937    114.80229   -9423.0725    895.31164    4.3349186    2.2660586   0.86157047    41.796791 
    1886   -9729.7107    115.31616   -9430.3664    899.31918    4.2306593    2.3149477   0.85917251    41.852973 
    1887   -9729.6483    116.10939   -9438.9373    905.50539     4.108644      2.36392   0.85668121     41.89642 
    1888   -9729.6112    117.09175   -9445.1588    913.16656    4.0201914    2.3891185   0.85409767    41.938046 
    1889   -9729.5595    117.86306   -9447.0571    919.18179    3.9926331    2.3771746   0.85142297    42.032979 
    1890   -9729.4753    118.20824   -9444.8101    921.87374    4.0231986    2.3318577   0.84865815    42.074753 
    1891   -9729.3878    118.35063   -9440.5535    922.98416    4.0821223    2.2719934   0.84847535    42.121552 
    1892    -9729.332    118.51523   -9437.7575    924.26787    4.1208494    2.2218561   0.85795498    42.167785 
    1893   -9729.2854    118.56093   -9439.7002    924.62428    4.0927334    2.1989423    0.8670706    42.208153 
    1894   -9729.2111    118.29936   -9447.5171    922.58437    3.9812064    2.2056302   0.87580726    42.248761 
    1895   -9729.1267    117.96974   -9459.3942    920.01377    3.8121538    2.2285101   0.88415032    42.289727 
    1896    -9729.073    118.03911   -9471.8731    920.55473    3.6350288     2.245248   0.89204027    42.335124 
    1897   -9729.0538    118.56631   -9482.2113    924.66624    3.4886476    2.2359102   0.89950865    42.375764 
    1898   -9729.0191    119.18695   -9489.5527     929.5064    3.3844005    2.1931546   0.90654115    42.415928 
    1899   -9728.9525     119.7205   -9494.5689    933.66744    3.3125655    2.1365897   0.91312263    42.455911 
    1900   -9728.9111    120.34293   -9498.7746    938.52156    3.2525398    2.1908403   0.91923718    42.496073 
    1901   -9728.9065    121.03694   -9504.0099      943.934    3.1784852     2.209145   0.92484304    42.593328 
    1902   -9728.8972    121.27489   -9511.6012    945.78967    3.0710643    2.1874334   0.92995086    42.633574 
    1903   -9728.8366    120.70996     -9520.77    941.38397    2.9406241    2.1405218   0.93454768    42.674236 
    1904   -9728.7698     119.7332   -9528.4209    933.76651     2.831549    2.0942109   0.93862342    42.719604 
    1905   -9728.7646    118.89241   -9531.0768    927.20938    2.7939384    2.0721068   0.94217113    42.759526 
    1906   -9728.7757    118.14588   -9527.2373    921.38742    2.8483601    2.0845022   0.94519172    42.802902 
    1907   -9728.7419    117.18005   -9518.0672    913.85515    2.9774847    2.1238185   0.94767844    42.845153 
    1908   -9728.6792    116.24048   -9506.2891    906.52771    3.1430598    2.1681596   0.94963183    42.886169 
    1909   -9728.6623    115.91572   -9495.3361      903.995    3.2976209    2.1915877   0.95105432     42.93039 
    1910   -9728.6977    116.22024    -9488.705    906.36984     3.391838    2.1772244   0.95195047     42.97168 
    1911   -9728.7037    116.58166   -9488.4343    909.18849    3.3957486     2.126113   0.95236876    43.012532 
    1912   -9728.6601    116.77161   -9493.4539    910.66985    3.3241908    2.0565198   0.95227698    43.054067 
    1913   -9728.6348    117.20021   -9499.8665    914.01237    3.2332033    1.9939426   0.95168748    43.095379 
    1914   -9728.6675    118.05838   -9503.5574    920.70505    3.1815013    1.9582518   0.95061475    43.136112 
    1915   -9728.7022    118.81761   -9502.5244    926.62608    3.1965909    1.9550907    0.9490745    43.234448 
    1916   -9728.6737    118.97285   -9497.1106    927.83673    3.2727023    1.9742734   0.94712813     43.27885 
    1917   -9728.6262    118.76287   -9489.1368    926.19913    3.3847257    1.9945884   0.94474424     43.32335 
    1918   -9728.6317    118.68502   -9481.3437    925.59204    3.4949431    1.9936258   0.94193589    43.373468 
    1919   -9728.6722    118.62333   -9476.7785    925.11091    3.5600367    1.9595009   0.93871474    43.424539 
    1920   -9728.6754    118.09781   -9477.1091    921.01255    3.5554089    1.9770364    0.9350916    43.471651 
    1921   -9728.6346    117.21504   -9481.0212    914.12807    3.4995437    2.0495524    0.9311272    43.517793 
    1922    -9728.628    116.67068   -9484.9144    909.88269    3.4444274    2.1170852    0.9267824    43.563695 
    1923   -9728.6816    116.76167   -9485.6383     910.5923    3.4349537    2.1622252   0.92206903    43.603991 
    1924   -9728.7221    117.03607   -9482.4872     912.7323    3.4800601    2.1788618   0.91699946    43.646327 
    1925   -9728.7108    117.14406   -9476.8867     913.5745    3.5590523    2.1758188   0.91158605    43.688637 
    1926    -9728.704    117.35675   -9471.1614    915.23321    3.6398739    2.1722319   0.90589814    43.728967 
    1927   -9728.7518    117.86834   -9467.8931    919.22293    3.6867407    2.1875953   0.89988991    43.769506 
    1928   -9728.8053    118.25251   -9469.0746    922.21897    3.6707978    2.2318592   0.89357358    43.872574 
    1929   -9728.8042    118.08693   -9474.6171     920.9277    3.5924493    2.2997508   0.88696257    43.916542 
    1930   -9728.7857    117.68149   -9481.8223    917.76578    3.4903566    2.3721735   0.88007198    43.958166 
    1931   -9728.8142    117.65184   -9487.1274    917.53454    3.4157818    2.4250132    0.8729827    44.004203 
    1932   -9728.8804    118.01529   -9488.6662    920.36897    3.3949683    2.4413249   0.86564827    44.044092 
    1933   -9728.9145    118.33649   -9486.9547     922.8739     3.419639    2.4203749   0.85808739    44.089514 
    1934    -9728.914    118.56631   -9483.8006     924.6662    3.4642102    2.3783765    0.8503186    44.129362 
    1935   -9728.9492    119.08794   -9481.3317    928.73426    3.4996012    2.3405389   0.84235988    44.169911 
    1936   -9729.0325    119.93586   -9481.6355      935.347    3.4964848    2.3510387   0.83429328    44.215565 
    1937   -9729.1056    120.56306   -9485.9085    940.23834    3.4371257    2.3633381   0.82607129    44.259997 
    1938   -9729.1315    120.62643   -9493.0535    940.73254    3.3365122    2.3962469   0.81771224    44.299305 
    1939   -9729.1597    120.46272   -9499.6616    939.45583    3.2435171    2.4436085   0.80923506    44.339888 
    1940   -9729.2435    120.47619   -9502.1937    939.56085     3.208915    2.4689113   0.80065877    44.436159 
    1941   -9729.3428    120.49856   -9499.3463    939.73527    3.2505601    2.4590435   0.79204342    44.479702 
    1942   -9729.3985    120.20465   -9492.4559    937.44322    3.3487311    2.4635151   0.78336309    44.520742 
    1943   -9729.4356    119.83931   -9484.2802      934.594    3.4648021    2.4656317   0.77463195     44.56316 
    1944   -9729.5259    119.89837   -9477.9898    935.05457    3.5549827    2.4585268   0.76586197    44.607256 
    1945   -9729.6633    120.27078   -9476.4147    937.95889    3.5791854    2.4473851   0.75706354    44.654065 
    1946   -9729.7678    120.38248   -9480.5966    938.83002    3.5215584    2.4380055   0.74825684    44.694311 
    1947   -9729.8314    120.12252   -9488.5369    936.80267     3.410236    2.4339574   0.73944064    44.735196 
    1948   -9729.9235    119.99786   -9496.0602    935.83047     3.305211    2.4347011   0.73062434    44.775635 
    1949   -9730.0744    120.25215   -9499.6457    937.81362    3.2566688    2.4378821   0.72350653    44.816417 
    1950   -9730.2271    120.47803   -9498.4323    939.57524    3.2759768    2.4314773   0.71840309    44.941847 
    1951   -9730.3299    120.37973   -9493.8367    938.80855    3.3423802    2.4168001   0.71307966    44.982492 
    1952   -9730.4426    120.24334   -9488.3594    937.74491    3.4213845     2.391001   0.70758475    45.023617 
    1953   -9730.6114    120.33543    -9484.747    938.46309    3.4748235    2.3573536   0.70192869    45.064593 
    1954   -9730.7908    120.35358   -9485.1032    938.60466    3.4723253    2.3566973   0.69612247    45.112118 
    1955   -9730.9325    119.94632   -9489.4141    935.42857    3.4134003    2.3650806   0.69017721    45.151032 
    1956   -9731.0633    119.33566   -9495.0573    930.66621    3.3354952    2.4035208   0.68410001    45.189521 
    1957   -9731.2415    118.91121   -9498.4816      927.356    3.2896171    2.4499005   0.67790377    45.228053 
    1958   -9731.4458    118.57427   -9497.4875    924.72827    3.3065538     2.470257   0.67159664    45.266767 
    1959   -9731.6173    117.97795   -9492.0571    920.07779    3.3857266    2.4594652   0.66518521    45.305284 
    1960   -9731.7659    117.21572   -9483.8601    914.13332    3.5036751    2.4289187    0.6586745    45.366417 
    1961   -9731.9459    116.72299   -9475.7141    910.29071    3.6213476    2.4006399   0.65206336    45.407401 
    1962   -9732.1636    116.56138   -9471.0072    909.03029    3.6909484    2.3960789   0.64535946    45.446514 
    1963   -9732.3652    116.36647   -9472.0853     907.5103    3.6785605    2.4253641   0.63856518    45.542321 
    1964   -9732.5335    116.00857   -9478.4078    904.71914    3.5915816    2.4818854    0.6316823    45.593507 
    1965    -9732.718    115.80889   -9486.5368    903.16188     3.479301    2.5448242   0.62770546    45.634641 
    1966   -9732.9426    115.95862   -9492.3293    904.32954      3.40061    2.5890049   0.63406664    45.675717 
    1967   -9733.1676    116.14133   -9493.3256    905.75447    3.3897096    2.5974504   0.64009124    45.716884 
    1968   -9733.3502    116.05102   -9489.4849    905.05017    3.4465705    2.5700806   0.64577665    45.757366 
    1969   -9733.5221    115.88682     -9482.73    903.76964    3.5444673    2.5238208   0.65112124    45.795631 
    1970   -9733.7342    115.96819    -9476.286    904.40419    3.6385389    2.4840978   0.65612442    45.834059 
    1971   -9733.9623    116.17617   -9473.5343    906.02617    3.6806535    2.4721333   0.66081104     45.87302 
    1972   -9734.1601    116.16685   -9476.1488    905.95351    3.6464972    2.4944032   0.66515969    45.916906 
    1973   -9734.3341    115.97891   -9482.7665    904.48781    3.5554275    2.5394874   0.66917465    45.971403 
    1974   -9734.5341    115.93985    -9489.815    904.18319    3.4586367    2.5838387   0.67286177    46.009935 
    1975   -9734.7669    116.05306   -9493.8037    905.06611     3.405554    2.6035819   0.67622795    46.054851 
    1976   -9734.9742    115.96902   -9493.0416     904.4107    3.4192544    2.5864694   0.67930172    46.093298 
    1977   -9735.1421    115.56191   -9487.9887    901.23573    3.4930411    2.5380088   0.68206936    46.186245 
    1978    -9735.313     115.1385    -9480.907    897.93365    3.5955436    2.4787993   0.68453816     46.22497 
    1979   -9735.5127    114.92179   -9475.2854    896.24357    3.6778165    2.4344263   0.68671536    46.263659 
    1980    -9735.711    114.73245   -9474.4355    894.76696      3.69263    2.4230526   0.68860839    46.302345 
    1981   -9735.8735    114.38959   -9479.4886    892.09315    3.6235104     2.446768   0.69022741     46.34696 
    1982   -9736.0283    114.05652   -9488.5606    889.49564    3.4974823    2.4906889   0.69157834    46.385379 
    1983   -9736.2076    113.93752   -9497.9771    888.56752    3.3669334    2.5302157   0.69266979    46.423986 
    1984   -9736.3925    113.87338   -9504.4163    888.06737    3.2785406    2.5429976   0.69351044    46.462491 
    1985   -9736.5443    113.56526   -9506.2226    885.66444    3.2551582    2.5199139   0.69410864    46.504794 
    1986   -9736.6723    113.03304   -9503.7088    881.51378    3.2924949    2.4695633   0.69446009    46.546522 
    1987   -9736.8136    112.51078   -9499.0387     877.4408    3.3604936    2.4139199   0.69458471    46.585149 
    1988   -9736.9629    112.01066   -9495.5213    873.54052     3.412316    2.3773644   0.69449014    46.623729 
    1989   -9737.0817    111.38966    -9495.807    868.69752     3.409957    2.3746473   0.69418424    46.662273 
    1990   -9737.1754    110.78206   -9500.0918    863.95895    3.3507241     2.403692   0.69367519    46.700927 
    1991   -9737.2815    110.55161   -9505.9792    862.16178     3.269016    2.4466338   0.69296443    46.739529 
    1992   -9737.4101    110.76076   -9510.1493     863.7929    3.2118975     2.478617   0.69206702    46.844169 
    1993   -9737.5205    111.08018   -9510.0565    866.28393    3.2147694    2.4800705   0.69099098    46.882432 
    1994   -9737.5946     111.3007   -9504.7119    868.00374    3.2913513    2.4464437   0.68974383    46.921154 
    1995    -9737.672    111.56896   -9494.9766    870.09578    3.4300354    2.3904141    0.6883325    46.959994 
    1996   -9737.7731    111.96867    -9483.524    873.21306    3.5933246    2.3354599   0.68678316     46.99878 
    1997   -9737.8673    112.22441   -9473.8572    875.20752    3.7312777    2.3042366   0.68508226    47.047611 
    1998   -9737.9225    112.08907   -9468.3728    874.15204    3.8095702    2.3075713   0.68323622    47.093275 
    1999   -9737.9581    111.74125   -9467.1009    871.43941    3.8280492    2.3394659   0.68125157    47.139331 
    2000   -9738.0149    111.53558   -9468.2102    869.83546    3.8131748    2.3801744   0.67913466    47.177881 
Loop time of 47.1779 on 1 procs for 1000 steps with 993 atoms

Pair  time (%) = 39.6483 (84.0399)
Bond  time (%) = 0.00427842 (0.0090687)
Kspce time (%) = 2.92351 (6.19677)
Neigh time (%) = 4.29773 (9.10964)
Comm  time (%) = 0.162126 (0.343648)
Outpt time (%) = 0.0756307 (0.16031)
Other time (%) = 0.0663552 (0.140649)

Nlocal:    993 ave 993 max 993 min
Histogram: 1 0 0 0 0 0 0 0 0 0
Nghost:    15926 ave 15926 max 15926 min
Histogram: 1 0 0 0 0 0 0 0 0 0
Neighs:    894547 ave 894547 max 894547 min
Histogram: 1 0 0 0 0 0 0 0 0 0

Total # of neighbors = 894547
Ave neighs/atom = 900.853
Ave special neighs/atom = 0.193353
Neighbor list builds = 73
Dangerous builds = 1
undump save1
undump save2


